[Molden Format]
[Atoms] AU
  N     1    7     0.0972132200   -0.2376293800    1.1274469600        
  C     2    6     0.1268252400   -0.0485622000   -1.2915243900        
  H     3    1     0.0040988200    1.3143352800    2.2662795200        
  H     4    1     0.1657498300   -1.9478586600    2.0132356500        
  H     5    1     0.0512493900    1.8042583100   -2.1606211200        
  H     6    1     0.2269902100   -1.7440440500   -2.4357691300        
[5D]
[7F]
[GTO]
  1  0
   s     6 1.00
  0.417351D+04  0.183480D-02
  0.627458D+03  0.139950D-01
  0.142902D+03  0.685870D-01
  0.402343D+02  0.232241D+00
  0.128202D+02  0.469070D+00
  0.439044D+01  0.360455D+00
   s     3 1.00
  0.116264D+02 -0.114961D+00
  0.271628D+01 -0.169118D+00
  0.772218D+00  0.114585D+01
   s     1 1.00
  0.212031D+00  0.100000D+01
   p     3 1.00
  0.116264D+02  0.675800D-01
  0.271628D+01  0.323907D+00
  0.772218D+00  0.740895D+00
   p     1 1.00
  0.212031D+00  0.100000D+01
   d     1 1.00
  0.800000D+00  0.100000D+01
  
  2  0
   s     6 1.00
  0.304752D+04  0.183470D-02
  0.457370D+03  0.140373D-01
  0.103949D+03  0.688426D-01
  0.292102D+02  0.232184D+00
  0.928666D+01  0.467941D+00
  0.316393D+01  0.362312D+00
   s     3 1.00
  0.786827D+01 -0.119332D+00
  0.188129D+01 -0.160854D+00
  0.544249D+00  0.114346D+01
   s     1 1.00
  0.168714D+00  0.100000D+01
   p     3 1.00
  0.786827D+01  0.689991D-01
  0.188129D+01  0.316424D+00
  0.544249D+00  0.744308D+00
   p     1 1.00
  0.168714D+00  0.100000D+01
   d     1 1.00
  0.800000D+00  0.100000D+01
  
  3  0
   s     3 1.00
  0.187311D+02  0.334946D-01
  0.282539D+01  0.234727D+00
  0.640122D+00  0.813757D+00
   s     1 1.00
  0.161278D+00  0.100000D+01
  
  4  0
   s     3 1.00
  0.187311D+02  0.334946D-01
  0.282539D+01  0.234727D+00
  0.640122D+00  0.813757D+00
   s     1 1.00
  0.161278D+00  0.100000D+01
  
  5  0
   s     3 1.00
  0.187311D+02  0.334946D-01
  0.282539D+01  0.234727D+00
  0.640122D+00  0.813757D+00
   s     1 1.00
  0.161278D+00  0.100000D+01
  
  6  0
   s     3 1.00
  0.187311D+02  0.334946D-01
  0.282539D+01  0.234727D+00
  0.640122D+00  0.813757D+00
   s     1 1.00
  0.161278D+00  0.100000D+01
  
[MO]
 Sym= __1_A__
 Ene=  0.000000000000000E+000
 Spin= Alpha
 Occup=    2.00000000000000     
                     1  0.995953143780501     
                     2  2.394582783612435E-002
                     3 -1.248134079511861E-002
                     4  1.051854165507114E-005
                     5  6.634871133285741E-005
                     6 -8.489880323272733E-004
                     7 -1.868238414935370E-005
                     8 -1.182086405167965E-004
                     9  1.513121329234660E-003
                    10  3.339035337188651E-004
                    11 -7.583731841708968E-006
                    12 -4.341331414889331E-005
                    13 -2.654146775889132E-005
                    14 -1.880199133801027E-006
                    15  9.641763877139043E-005
                    16 -6.758911682586561E-004
                    17  4.730476549162844E-003
                    18  6.236668230154675E-006
                    19  3.974440359123644E-005
                    20 -5.084335817174253E-004
                    21 -2.761914738624125E-005
                    22 -1.765779181258339E-004
                    23  2.258561753141871E-003
                    24 -6.966808807431388E-004
                    25  1.391292079511201E-005
                    26  9.818527878334203E-005
                    27 -4.251474323424626E-005
                    28 -5.679363958818200E-006
                    29 -1.556921591029413E-005
                    30  1.777587891699955E-003
                    31 -1.553187484565269E-005
                    32  1.777622555162260E-003
                    33 -2.205384422838936E-004
                    34 -1.248115642799562E-004
                    35 -2.205515509540940E-004
                    36 -1.248724586667375E-004
 Sym= __2_A__
 Ene=  0.000000000000000E+000
 Spin= Alpha
 Occup=    2.00000000000000     
                     1 -3.281130881327385E-004
                     2 -1.463854097010271E-004
                     3 -1.870754515014578E-004
                     4 -5.408513381782170E-006
                     5 -3.463565537578430E-005
                     6  4.430916104923956E-004
                     7 -1.088996957195740E-005
                     8 -6.941207794357998E-005
                     9  8.889186389088887E-004
                    10 -6.950205976558169E-004
                    11  1.687323431156574E-005
                    12  8.623207557602738E-005
                    13  1.089377165948761E-004
                    14  9.174431194307841E-006
                    15  0.996084531178226     
                    16  2.405894796944254E-002
                    17 -9.579126980978082E-003
                    18 -1.701547915207751E-005
                    19 -1.086070321051422E-004
                    20  1.389425102130392E-003
                    21 -1.141491686205207E-005
                    22 -7.321216088660768E-005
                    23  9.364544372145042E-004
                    24  8.806707579828751E-004
                    25 -2.630126904361037E-005
                    26 -9.002076939227489E-005
                    27 -3.867563667206014E-004
                    28 -3.601530861898154E-005
                    29 -4.103057811686108E-006
                    30  6.285554371520632E-005
                    31 -4.070076097991396E-006
                    32  6.291258397052794E-005
                    33 -4.052205746700389E-004
                    34  2.577042245016424E-003
                    35 -4.052223308934230E-004
                    36  2.577013801025790E-003
 Sym= __3_A__
 Ene=  0.000000000000000E+000
 Spin= Alpha
 Occup=    2.00000000000000     
                     1 -0.191716455386120     
                     2  0.403264884939455     
                     3  0.407752955278199     
                     4  1.005935105251225E-003
                     5  6.381491784447443E-003
                     6 -8.165938144423415E-002
                     7  3.422331964471126E-004
                     8  2.157676156642413E-003
                     9 -2.761681421677198E-002
                    10  1.182570681074407E-002
                    11 -5.849363917870261E-004
                    12 -3.009641964874717E-004
                    13 -1.691454626855620E-002
                    14 -1.633803582562746E-003
                    15 -0.110055819956949     
                    16  0.223755226978329     
                    17  6.682812223634556E-002
                    18 -1.835044631338415E-003
                    19 -1.172362623190514E-002
                    20  0.149989562112109     
                    21  1.939835347782821E-004
                    22  1.236454364086744E-003
                    23 -1.581972764984417E-002
                    24  2.423293883378557E-002
                    25 -6.412681629423378E-004
                    26 -2.798289514586422E-003
                    27 -6.488917609115324E-003
                    28 -5.837598657541406E-004
                    29  9.454654129087457E-002
                    30 -1.127359885548185E-002
                    31  9.454768427640664E-002
                    32 -1.127397481070353E-002
                    33  3.745020439232000E-002
                    34 -1.265584276898394E-003
                    35  3.745081369429348E-002
                    36 -1.265293883490776E-003
 Sym= __4_A__
 Ene=  0.000000000000000E+000
 Spin= Alpha
 Occup=    2.00000000000000     
                     1 -7.869516497225421E-002
                     2  0.166936916186513     
                     3  0.264365986232304     
                     4 -3.533521718431335E-003
                     5 -2.264098651616905E-002
                     6  0.289696001129118     
                     7 -1.540700785220164E-003
                     8 -9.884420911485952E-003
                     9  0.126482108716615     
                    10 -1.255311160517096E-002
                    11 -7.804752725286240E-005
                    12  3.059748245665683E-003
                    13 -1.743014822370513E-002
                    14 -1.737390760970124E-003
                    15  0.161648768432505     
                    16 -0.341658852279550     
                    17 -0.302260988940622     
                    18 -5.200995694531685E-004
                    19 -3.348166759061211E-003
                    20  4.284816808299445E-002
                    21 -3.592533366026265E-004
                    22 -2.297832084989901E-003
                    23  2.939926330269630E-002
                    24 -1.990977520638942E-003
                    25  4.682609108160453E-004
                    26 -1.391263606175266E-003
                    27  2.147971410697024E-002
                    28  2.101918117491083E-003
                    29  0.127393574371869     
                    30  1.119131215325483E-002
                    31  0.127390080430992     
                    32  1.119136828668486E-002
                    33 -0.134295145256809     
                    34 -2.292929119582849E-002
                    35 -0.134294971487547     
                    36 -2.292918015994503E-002
 Sym= __5_A__
 Ene=  0.000000000000000E+000
 Spin= Alpha
 Occup=    2.00000000000000     
                     1 -3.648383678173052E-007
                     2  1.108147518536500E-006
                     3  8.898282564453880E-007
                     4 -2.373431246811037E-002
                     5  0.478922029591259     
                     6  3.714814131025428E-002
                     7 -1.557116043857820E-002
                     8  0.314195529814561     
                     9  2.437161061502063E-002
                    10  2.677343608927733E-003
                    11 -1.005834200477635E-003
                    12  1.980443286688181E-002
                    13  1.569610576858608E-003
                    14 -1.618582137915048E-004
                    15 -1.985862764121821E-006
                    16  4.614592349866049E-006
                    17  6.898896220321401E-006
                    18 -8.374600027083552E-003
                    19  0.169012926751030     
                    20  1.310154688314966E-002
                    21 -1.021454099463024E-003
                    22  2.060819256272103E-002
                    23  1.596507040090624E-003
                    24  1.689351906678287E-003
                    25 -6.355544418329394E-004
                    26  1.250220547222709E-002
                    27  9.905739506002233E-004
                    28 -1.053215466030926E-004
                    29  0.208055283807648     
                    30  3.654973019056040E-002
                    31 -0.208055363735623     
                    32 -3.655069162928840E-002
                    33  5.689159840161861E-002
                    34  2.272965199661867E-002
                    35 -5.688584968517753E-002
                    36 -2.272851192470096E-002
 Sym= __6_A__
 Ene=  0.000000000000000E+000
 Spin= Alpha
 Occup=    2.00000000000000     
                     1  1.061791252710458E-002
                     2 -2.598227172478280E-002
                     3 -9.119294051042708E-003
                     4 -4.806956496295464E-003
                     5 -3.082754774066152E-002
                     6  0.394313152012675     
                     7 -2.595722787674353E-003
                     8 -1.666791086518197E-002
                     9  0.213185286645195     
                    10 -1.273132773434592E-002
                    11  2.631617233930526E-005
                    12  2.690547823693738E-003
                    13 -1.235402611333783E-002
                    14 -1.239744482094205E-003
                    15 -4.033241628774546E-002
                    16  7.670834773391134E-002
                    17  0.213716049242773     
                    18  5.184468355670650E-003
                    19  3.309141271907301E-002
                    20 -0.423421480074689     
                    21  1.182484793307423E-003
                    22  7.557175062017439E-003
                    23 -9.669507832838269E-002
                    24 -2.922845176166348E-002
                    25  1.997764562726736E-004
                    26  5.620932060589362E-003
                    27 -2.119268336784218E-002
                    28 -2.141629746959068E-003
                    29  0.104484078624071     
                    30  3.174867522623859E-002
                    31  0.104487945885475     
                    32  3.174999293410390E-002
                    33  0.153229979703928     
                    34  6.840449774003766E-002
                    35  0.153229553702308     
                    36  6.840484969389811E-002
 Sym= __7_A__
 Ene=  0.000000000000000E+000
 Spin= Alpha
 Occup=    1.66575124806127     
                     1  4.178313142649189E-007
                     2 -9.359767221292408E-007
                     3 -3.502896478177426E-006
                     4 -8.216738114635774E-003
                     5  0.165524049350448     
                     6  1.283813575479792E-002
                     7 -8.394298540972147E-003
                     8  0.169213526615358     
                     9  1.312503720818163E-002
                    10  3.755689225601930E-003
                    11 -1.410803823582114E-003
                    12  2.778565346804168E-002
                    13  2.201991963827402E-003
                    14 -2.317339095577495E-004
                    15 -1.945534618404841E-007
                    16  3.413726669587129E-007
                    17  2.301185159921755E-006
                    18  2.264310538297052E-002
                    19 -0.457289485339882     
                    20 -3.546294211470859E-002
                    21  1.380986592678558E-002
                    22 -0.278858106532384     
                    23 -2.162360620249711E-002
                    24  4.985215659994977E-003
                    25 -1.874609977759947E-003
                    26  3.689413172960510E-002
                    27  2.923026727122462E-003
                    28 -3.095142787316576E-004
                    29  9.823572007015215E-002
                    30  4.550509855026618E-002
                    31 -9.823684949383826E-002
                    32 -4.550608109698651E-002
                    33 -0.241766273767910     
                    34 -9.679653090548680E-002
                    35  0.241768644095918     
                    36  9.679859415997699E-002
 Sym= __8_A__
 Ene=  0.000000000000000E+000
 Spin= Alpha
 Occup=    1.63269252464761     
                     1  5.959877515771743E-006
                     2 -1.568971323348921E-005
                     3 -1.996503782605189E-005
                     4  0.575756757909687     
                     5  2.782408798168545E-002
                     6  9.199061972356823E-003
                     7  0.451953707429220     
                     8  2.184216663026395E-002
                     9  7.223261508496705E-003
                    10 -5.117317678423266E-004
                    11 -1.842324764008981E-002
                    12 -8.660565471547646E-004
                    13  1.580786258268626E-004
                    14  1.451048228592375E-003
                    15 -1.873135991458325E-006
                    16  4.407259807214133E-006
                    17 -1.473419456262205E-006
                    18  0.201100906854370     
                    19  9.699185274538336E-003
                    20  3.232182369602220E-003
                    21  6.240653639442341E-002
                    22  3.004882472068908E-003
                    23  1.001816645934825E-003
                    24  9.503643972451842E-004
                    25  3.421335593195556E-002
                    26  1.611407148320222E-003
                    27 -2.894934779036024E-004
                    28 -2.695010196367342E-003
                    29  7.724742016581367E-006
                    30  2.745882122160814E-006
                    31 -4.914979492033844E-007
                    32 -6.067169554546003E-007
                    33 -1.000653038342284E-005
                    34 -5.233926572567179E-006
                    35  4.366491209596069E-006
                    36  2.812009163120190E-006
 Sym= __9_A__
 Ene=  0.000000000000000E+000
 Spin= Alpha
 Occup=   0.701556227291116     
                     1 -2.635658964031457E-006
                     2  6.447004111894933E-006
                     3  1.832846565179264E-005
                     4 -0.264958460735805     
                     5 -1.279912398054882E-002
                     6 -4.235238536081611E-003
                     7 -0.412325644740929     
                     8 -1.991756086095258E-002
                     9 -6.595307614191188E-003
                    10 -5.820062528361997E-004
                    11 -2.099423995210271E-002
                    12 -9.867294216414886E-004
                    13  1.770265258617636E-004
                    14  1.653612199401182E-003
                    15 -1.251166129924398E-006
                    16  6.255870124189563E-007
                    17  1.298179572217284E-005
                    18  0.593798749129831     
                    19  2.867240988716982E-002
                    20  9.499501164732338E-003
                    21  0.606347989013682     
                    22  2.927614447689663E-002
                    23  9.704075975414971E-003
                    24 -5.863253732363273E-004
                    25 -2.113084266592985E-002
                    26 -9.948598855726437E-004
                    27  1.790827395699859E-004
                    28  1.664231521408929E-003
                    29 -3.846005216588634E-006
                    30 -3.057376966391642E-006
                    31 -9.794354691379338E-006
                    32 -1.056771099782597E-005
                    33 -1.583729547203201E-006
                    34  7.834339069744330E-007
                    35 -4.504417780983017E-006
                    36 -8.197690423598848E-006
