[Molden Format]
[Atoms] AU
  N     1    7     0.0972132200   -0.2376293800    1.1274469600        
  C     2    6     0.1268252400   -0.0485622000   -1.2915243900        
  H     3    1     0.0040988200    1.3143352800    2.2662795200        
  H     4    1     0.1657498300   -1.9478586600    2.0132356500        
  H     5    1     0.0512493900    1.8042583100   -2.1606211200        
  H     6    1     0.2269902100   -1.7440440500   -2.4357691300        
[5D]
[7F]
[GTO]
  1  0
   s     6 1.00
  0.417351D+04  0.183480D-02
  0.627458D+03  0.139950D-01
  0.142902D+03  0.685870D-01
  0.402343D+02  0.232241D+00
  0.128202D+02  0.469070D+00
  0.439044D+01  0.360455D+00
   s     3 1.00
  0.116264D+02 -0.114961D+00
  0.271628D+01 -0.169118D+00
  0.772218D+00  0.114585D+01
   s     1 1.00
  0.212031D+00  0.100000D+01
   p     3 1.00
  0.116264D+02  0.675800D-01
  0.271628D+01  0.323907D+00
  0.772218D+00  0.740895D+00
   p     1 1.00
  0.212031D+00  0.100000D+01
   d     1 1.00
  0.800000D+00  0.100000D+01
  
  2  0
   s     6 1.00
  0.304752D+04  0.183470D-02
  0.457370D+03  0.140373D-01
  0.103949D+03  0.688426D-01
  0.292102D+02  0.232184D+00
  0.928666D+01  0.467941D+00
  0.316393D+01  0.362312D+00
   s     3 1.00
  0.786827D+01 -0.119332D+00
  0.188129D+01 -0.160854D+00
  0.544249D+00  0.114346D+01
   s     1 1.00
  0.168714D+00  0.100000D+01
   p     3 1.00
  0.786827D+01  0.689991D-01
  0.188129D+01  0.316424D+00
  0.544249D+00  0.744308D+00
   p     1 1.00
  0.168714D+00  0.100000D+01
   d     1 1.00
  0.800000D+00  0.100000D+01
  
  3  0
   s     3 1.00
  0.187311D+02  0.334946D-01
  0.282539D+01  0.234727D+00
  0.640122D+00  0.813757D+00
   s     1 1.00
  0.161278D+00  0.100000D+01
  
  4  0
   s     3 1.00
  0.187311D+02  0.334946D-01
  0.282539D+01  0.234727D+00
  0.640122D+00  0.813757D+00
   s     1 1.00
  0.161278D+00  0.100000D+01
  
  5  0
   s     3 1.00
  0.187311D+02  0.334946D-01
  0.282539D+01  0.234727D+00
  0.640122D+00  0.813757D+00
   s     1 1.00
  0.161278D+00  0.100000D+01
  
  6  0
   s     3 1.00
  0.187311D+02  0.334946D-01
  0.282539D+01  0.234727D+00
  0.640122D+00  0.813757D+00
   s     1 1.00
  0.161278D+00  0.100000D+01
  
[MO]
 Sym= __1_a__
 Ene=  0.000000000000000E+000
 Spin= Alpha
 Occup=    2.00000000000000     
                     1  0.995953143766872     
                     2  2.394582786498610E-002
                     3 -1.248134076708500E-002
                     4  1.051854198910630E-005
                     5  6.634871347215410E-005
                     6 -8.489880596743290E-004
                     7 -1.868238398377730E-005
                     8 -1.182086394550770E-004
                     9  1.513121315666140E-003
                    10  3.339035352469321E-004
                    11 -7.583731883416270E-006
                    12 -4.341331432058590E-005
                    13 -2.654146822855680E-005
                    14 -1.880199176559950E-006
                    15  9.641763058958680E-005
                    16 -6.758911560732090E-004
                    17  4.730476543184930E-003
                    18  6.236667828680980E-006
                    19  3.974440102871840E-005
                    20 -5.084335489233550E-004
                    21 -2.761914743482760E-005
                    22 -1.765779184364830E-004
                    23  2.258561757117560E-003
                    24 -6.966808775089689E-004
                    25  1.391292073902720E-005
                    26  9.818527829441361E-005
                    27 -4.251474260776760E-005
                    28 -5.679363890368320E-006
                    29 -1.556921524508860E-005
                    30  1.777587889203180E-003
                    31 -1.553187418185820E-005
                    32  1.777622552665160E-003
                    33 -2.205384475127320E-004
                    34 -1.248115679562290E-004
                    35 -2.205515561832220E-004
                    36 -1.248724623431500E-004
 Sym= __2_a__
 Ene=  0.000000000000000E+000
 Spin= Alpha
 Occup=    2.00000000000000     
                     1 -3.281130725814940E-004
                     2 -1.463854378442120E-004
                     3 -1.870754744302520E-004
                     4 -5.408514139654360E-006
                     5 -3.463566022956420E-005
                     6  4.430916725861230E-004
                     7 -1.088996995134250E-005
                     8 -6.941208037604610E-005
                     9  8.889186700262770E-004
                    10 -6.950206005049807E-004
                    11  1.687323435747660E-005
                    12  8.623207602115900E-005
                    13  1.089377158580294E-004
                    14  9.174431115821081E-006
                    15  0.996084531188535     
                    16  2.405894794738530E-002
                    17 -9.579126973702660E-003
                    18 -1.701547844229540E-005
                    19 -1.086070275748790E-004
                    20  1.389425044166250E-003
                    21 -1.141491675761040E-005
                    22 -7.321216021893019E-005
                    23  9.364544286714670E-004
                    24  8.806707526993082E-004
                    25 -2.630126895262040E-005
                    26 -9.002076859079190E-005
                    27 -3.867563677785420E-004
                    28 -3.601530873419320E-005
                    29 -4.103048539021440E-006
                    30  6.285554862159309E-005
                    31 -4.070066825313110E-006
                    32  6.291258887706030E-005
                    33 -4.052205654701650E-004
                    34  2.577042251960170E-003
                    35 -4.052223216936920E-004
                    36  2.577013807969530E-003
 Sym= __3_a__
 Ene=  0.000000000000000E+000
 Spin= Alpha
 Occup=    1.98374601539416     
                     1 -0.182087466866872     
                     2  0.387258711135531     
                     3  0.373155144462924     
                     4  4.574772205636090E-006
                     5 -3.347576057902970E-005
                     6  4.131965962983310E-004
                     7 -2.174372622923600E-004
                     8 -1.428524713646350E-003
                     9  1.826669092087480E-002
                    10  8.235713665639662E-003
                    11 -5.003707940450840E-004
                    12  1.559279731427950E-004
                    13 -1.649916248806404E-002
                    14 -1.600891312312180E-003
                    15 -0.121180729783218     
                    16  0.244908717516956     
                    17  0.127916164738511     
                    18 -6.221757934910980E-004
                    19 -3.977853814768980E-003
                    20  5.087463587805190E-002
                    21  3.798360933699280E-004
                    22  2.427078683188110E-003
                    23 -3.106026009470000E-002
                    24  1.536155456846885E-002
                    25 -5.109715086931610E-004
                    26 -1.364816543831740E-003
                    27 -9.398232969027739E-003
                    28 -8.882870999860570E-004
                    29  0.112019020548322     
                    30 -2.727500206916970E-003
                    31  0.112019508101170     
                    32 -2.727923654559180E-003
                    33  7.351754222218219E-002
                    34  1.608853146107480E-002
                    35  7.351849363959460E-002
                    36  1.608907218656910E-002
 Sym= __4_a__
 Ene=  0.000000000000000E+000
 Spin= Alpha
 Occup=    1.97674014952351     
                     1 -9.548199582607721E-002
                     2  0.210534263263465     
                     3  0.276312445925543     
                     4 -2.051812431280010E-003
                     5 -1.318585233184900E-002
                     6  0.168723979200972     
                     7 -8.109510330335620E-004
                     8 -5.228612949988470E-003
                     9  6.691664759938561E-002
                    10 -6.228933754713523E-003
                    11 -1.527319676934430E-004
                    12  1.964076430486210E-003
                    13 -1.440477812528932E-002
                    14 -1.426778986156550E-003
                    15  0.155896554775124     
                    16 -0.331514404566209     
                    17 -0.322156836823587     
                    18 -2.057916833843800E-003
                    19 -1.318705620788210E-002
                    20  0.168701376382595     
                    21 -6.400813522590640E-004
                    22 -4.102150668120320E-003
                    23  5.246963757136650E-002
                    24  8.025812371237640E-003
                    25  2.932199391040210E-004
                    26 -2.899328820897430E-003
                    27  2.333962028875180E-002
                    28  2.306037726316000E-003
                    29  0.104195802433140     
                    30  2.364647764075670E-003
                    31  0.104193224274761     
                    32  2.364316577443040E-003
                    33 -0.164656214645297     
                    34 -4.651146740192390E-002
                    35 -0.164653021895061     
                    36 -4.651020164728970E-002
 Sym= __5_a__
 Ene=  0.000000000000000E+000
 Spin= Alpha
 Occup=    1.97513789999173     
                     1 -1.100992802358010E-006
                     2  2.659293672813740E-006
                     3  4.489406157691590E-006
                     4 -1.349244590291130E-002
                     5  0.272483189571382     
                     6  2.113662783107670E-002
                     7 -6.620888955560370E-003
                     8  0.133769900444359     
                     9  1.037678177506010E-002
                    10 -3.756953976165938E-004
                    11  1.410558680668370E-004
                    12 -2.781821675138430E-003
                    13 -2.204268158794640E-004
                    14  2.543886579481560E-005
                    15 -1.218609383920680E-007
                    16  6.287996471860210E-007
                    17  9.890193843398690E-007
                    18 -2.100267122790640E-002
                    19  0.424052444619152     
                    20  3.288313567468960E-002
                    21 -9.144500655597720E-003
                    22  0.184601306583435     
                    23  1.431421593752220E-002
                    24 -1.672022919437409E-003
                    25  6.288746883843320E-004
                    26 -1.237496607562010E-002
                    27 -9.802140969698940E-004
                    28  1.034995553640960E-004
                    29  9.849836313309750E-002
                    30  7.640257600793360E-004
                    31 -9.849677647808590E-002
                    32 -7.642314544186010E-004
                    33  0.192602731641930     
                    34  8.659626302492450E-002
                    35 -0.192602678653785     
                    36 -8.659740666419490E-002
 Sym= __6_a__
 Ene=  0.000000000000000E+000
 Spin= Alpha
 Occup=    1.97142136488748     
                     1 -6.263632759611660E-007
                     2  1.273030335656320E-006
                     3  2.956228320692040E-006
                     4  2.165053588268660E-002
                     5 -0.437090350486169     
                     6 -3.390268146469390E-002
                     7  1.516683485017070E-002
                     8 -0.306190462992167     
                     9 -2.374991593406390E-002
                    10 -4.718955600820243E-003
                    11  1.773414263722290E-003
                    12 -3.491074676165230E-002
                    13 -2.766778557295140E-003
                    14  2.897638658850450E-004
                    15  9.718841920134320E-007
                    16 -2.296518007135290E-006
                    17 -4.964270923991980E-006
                    18 -1.235744032934170E-002
                    19  0.249478549685739     
                    20  1.935039153661970E-002
                    21 -9.578914646509279E-003
                    22  0.193343242393714     
                    23  1.499340573285580E-002
                    24 -4.665790636275369E-003
                    25  1.753490292393340E-003
                    26 -3.452988072524190E-002
                    27 -2.735828394248360E-003
                    28  2.900626267053040E-004
                    29 -0.211330828729851     
                    30 -6.896898588218379E-002
                    31  0.211332343202407     
                    32  6.897002820461180E-002
                    33  0.148347932982461     
                    34  6.952646100014460E-002
                    35 -0.148352407907250     
                    36 -6.952871750330671E-002
 Sym= __7_a__
 Ene=  0.000000000000000E+000
 Spin= Alpha
 Occup=    1.96851532674873     
                     1 -2.812735238363890E-002
                     2  6.311949958135740E-002
                     3  2.287128532162700E-002
                     4  5.793995220335960E-003
                     5  3.710091581597650E-002
                     6 -0.474594527803855     
                     7  2.890306282016380E-003
                     8  1.852009699778580E-002
                     9 -0.236896946688453     
                    10  1.225248033103969E-002
                    11 -1.745664322709150E-005
                    12 -2.620729701201800E-003
                    13  1.229401750713698E-002
                    14  1.232736776911720E-003
                    15 -2.812502146363650E-002
                    16  6.162526252695410E-002
                    17 -9.801571075343750E-002
                    18 -5.058648325636180E-003
                    19 -3.229671746966660E-002
                    20  0.413242210895149     
                    21 -9.765399959593100E-004
                    22 -6.244500079710610E-003
                    23  7.989605321617500E-002
                    24  2.936680154388388E-002
                    25 -3.737499844362820E-004
                    26 -4.970561874048300E-003
                    27  1.254606065530882E-002
                    28  1.294049382718020E-003
                    29 -0.113846511392718     
                    30 -3.788157425588240E-002
                    31 -0.113848233697273     
                    32 -3.788277972993870E-002
                    33 -9.707194899801801E-002
                    34 -5.966835658912770E-002
                    35 -9.707097157559920E-002
                    36 -5.966852851431370E-002
 Sym= __8_a__
 Ene=  0.000000000000000E+000
 Spin= Alpha
 Occup=    1.92550515066043     
                     1 -6.341838594284860E-006
                     2  1.632086687235760E-005
                     3  1.887795647227600E-005
                     4 -0.516955842572336     
                     5 -2.496588166313630E-002
                     6 -8.260450561507530E-003
                     7 -0.358103299676162     
                     8 -1.729496021095410E-002
                     9 -5.723030844208320E-003
                    10  5.448206092034365E-004
                    11  1.961122633486050E-002
                    12  9.228183255806040E-004
                    13 -1.676856590551090E-004
                    14 -1.544645351175680E-003
                    15  3.641102323384650E-006
                    16 -7.788684948617250E-006
                    17 -5.814278603260290E-006
                    18 -0.326468831537697     
                    19 -1.576068839059390E-002
                    20 -5.232712849912060E-003
                    21 -0.168957672852078     
                    22 -8.156506795532811E-003
                    23 -2.706411973130570E-003
                    24 -8.867020788907060E-004
                    25 -3.194667001623060E-002
                    26 -1.503304468371530E-003
                    27  2.706140594387440E-004
                    28  2.516450496938490E-003
                    29  3.394442330771650E-007
                    30 -1.686275565890280E-006
                    31 -4.766201448107940E-006
                    32  1.558273029201840E-006
                    33  2.096696046757980E-006
                    34  1.644644480133110E-006
                    35 -1.309272419254460E-006
                    36 -4.378108086181720E-008
 Sym= __9_a__
 Ene=  0.000000000000000E+000
 Spin= Alpha
 Occup=   6.407141861509870E-002
                     1  3.946735596626980E-006
                     2 -1.857406164238890E-005
                     3 -3.606262047324730E-006
                     4  0.604656946314291     
                     5  2.920531477043860E-002
                     6  9.658057374861209E-003
                     7  0.153548336021575     
                     8  7.414255741073710E-003
                     9  2.451835709959510E-003
                    10  1.438591686278486E-003
                    11  5.179894221865520E-002
                    12  2.437079484674890E-003
                    13 -4.431040412660940E-004
                    14 -4.080557554404810E-003
                    15  1.804798905405180E-006
                    16 -7.866590670619320E-006
                    17 -1.135085464592690E-005
                    18 -0.623478826922010     
                    19 -3.010770186558030E-002
                    20 -9.980589354436740E-003
                    21 -0.345385859564433     
                    22 -1.667662328913900E-002
                    23 -5.531664305782530E-003
                    24 -2.356318152949255E-004
                    25 -8.534294476579021E-003
                    26 -4.009149721041820E-004
                    27  7.102178709260600E-005
                    28  6.722753874833120E-004
                    29  7.818195112141010E-006
                    30  7.037570531209070E-006
                    31  1.191336361857490E-005
                    32  3.515259652953260E-006
                    33  6.657863506738390E-007
                    34 -5.024811638436810E-007
                    35  5.273512911879200E-006
                    36  3.867472980296290E-006
 Sym= _10_a__
 Ene=  0.000000000000000E+000
 Spin= Alpha
 Occup=   1.939343856627280E-002
                     1 -9.875068480722410E-002
                     2  0.563004258641388     
                     3  0.306644534530248     
                     4  8.510999991174870E-003
                     5  5.443313498384900E-002
                     6 -0.695856579819977     
                     7  2.442826054653900E-003
                     8  1.555661048638410E-002
                     9 -0.199130606170725     
                    10 -9.536939263135788E-002
                    11  2.411886177528370E-003
                    12  1.144347520028260E-002
                    13  1.992751159529510E-002
                    14  1.748959545364090E-003
                    15  0.118377120369673     
                    16 -0.564952083257214     
                    17 -0.369749390838358     
                    18  8.346892628393880E-003
                    19  5.327753373897720E-002
                    20 -0.681789612234278     
                    21  3.302222785702440E-003
                    22  2.105839667798860E-002
                    23 -0.269363766536683     
                    24  3.548107449855379E-002
                    25 -6.257790642933070E-004
                    26 -5.321542580043070E-003
                    27  6.344705040081660E-003
                    28  7.002404869974570E-004
                    29 -4.994010946923070E-002
                    30  3.142257406802620E-002
                    31 -4.990007634039940E-002
                    32  3.143622870478650E-002
                    33  0.105695218211328     
                    34  2.767749601476180E-002
                    35  0.105693053036437     
                    36  2.767859464224300E-002
 Sym= _11_a__
 Ene=  0.000000000000000E+000
 Spin= Alpha
 Occup=   1.784899845019890E-002
                     1 -5.693028480045450E-006
                     2  3.577215799288100E-005
                     3  8.920177258979980E-006
                     4  4.226797857258020E-002
                     5 -0.853163138507336     
                     6 -6.619643745729080E-002
                     7 -9.491928287686540E-003
                     8  0.191777895025785     
                     9  1.486864003594380E-002
                    10  1.550740720693932E-002
                    11 -5.829242206388650E-003
                    12  0.114761200818118     
                    13  9.097538315141360E-003
                    14 -9.558138406820100E-004
                    15  4.491221432834400E-006
                    16 -2.067453776015390E-005
                    17 -1.125594994795620E-005
                    18  6.398658595786320E-003
                    19 -0.129234254767936     
                    20 -1.005237357649060E-002
                    21  6.332442042955980E-003
                    22 -0.127902681245480     
                    23 -9.928622435705281E-003
                    24 -9.848917574594758E-003
                    25  3.702542626532320E-003
                    26 -7.289709109826750E-002
                    27 -5.775641899274220E-003
                    28  6.150358278585500E-004
                    29  0.436930834358125     
                    30  0.144026198220337     
                    31 -0.436950843103803     
                    32 -0.144030350546724     
                    33  0.157772958047895     
                    34  6.991821406938520E-002
                    35 -0.157767728047497     
                    36 -6.991777017718750E-002
 Sym= _12_a__
 Ene=  0.000000000000000E+000
 Spin= Alpha
 Occup=   1.655840186309320E-002
                     1  0.106656153250282     
                     2 -0.758659432356281     
                     3  0.117304037013917     
                     4  7.127493184223330E-003
                     5  4.589461118587290E-002
                     6 -0.587264016625439     
                     7 -1.222777598196050E-003
                     8 -7.864379932617550E-003
                     9  0.100649933874496     
                    10  2.718799041293519E-002
                    11 -2.808550560525030E-003
                    12  5.052503873488320E-003
                    13 -0.113029522707427     
                    14 -1.103182654801560E-002
                    15  2.735814696450530E-002
                    16 -0.176081145149544     
                    17 -8.135583493368220E-002
                    18 -1.524017456115810E-003
                    19 -9.806895443326399E-003
                    20  0.125432454296773     
                    21  5.578094958943380E-004
                    22  3.523115311109910E-003
                    23 -4.512120052701860E-002
                    24  1.190463165098678E-002
                    25 -5.537954421312340E-004
                    26 -4.652392774935540E-004
                    27 -1.497547963995178E-002
                    28 -1.442269813722400E-003
                    29  0.465456464878774     
                    30  0.139975849383192     
                    31  0.465443191729194     
                    32  0.139973157944978     
                    33  9.514254474403259E-002
                    34  7.152729524265961E-002
                    35  9.513024248365810E-002
                    36  7.152193596458530E-002
 Sym= _13_a__
 Ene=  0.000000000000000E+000
 Spin= Alpha
 Occup=   1.511317545527240E-002
                     1  1.471830521559470E-006
                     2 -1.069064777614960E-005
                     3  6.141457399240750E-006
                     4 -1.891026357005510E-002
                     5  0.381788080699681     
                     6  2.962092087583610E-002
                     7  9.247584868451279E-003
                     8 -0.186697049651085     
                     9 -1.448447039448550E-002
                    10  1.360372777238249E-002
                    11 -5.111146040402190E-003
                    12  0.100644480634405     
                    13  7.976909745406741E-003
                    14 -8.494246025996860E-004
                    15 -5.958711431933570E-006
                    16  3.793227742160270E-005
                    17 -1.477643051422930E-006
                    18  4.625969131997710E-002
                    19 -0.933911472039138     
                    20 -7.243487293869839E-002
                    21 -7.540351339061890E-003
                    22  0.152122528674883     
                    23  1.179353363631980E-002
                    24 -5.541562688414953E-003
                    25  2.082055563891490E-003
                    26 -4.100567799922360E-002
                    27 -3.248166203042720E-003
                    28  3.424669190234180E-004
                    29 -5.727504369841560E-002
                    30 -5.757834798916970E-002
                    31  5.727873795996900E-002
                    32  5.758112529124000E-002
                    33  0.457099168110835     
                    34  0.196691527703933     
                    35 -0.457142440088389     
                    36 -0.196712442809621     
 Sym= _14_a__
 Ene=  0.000000000000000E+000
 Spin= Alpha
 Occup=   1.441246400848900E-002
                     1 -1.803010842921000E-002
                     2  0.162587988682393     
                     3 -0.240650791357967     
                     4 -2.197829718013680E-003
                     5 -1.408832059689570E-002
                     6  0.180427434913981     
                     7 -1.160930497389300E-003
                     8 -7.401017332225980E-003
                     9  9.456662667041919E-002
                    10  3.182473305813128E-002
                    11 -5.614743353360620E-004
                    12 -4.787673717440860E-003
                    13  5.907359588906920E-003
                    14  6.511275603302310E-004
                    15  0.106846768909739     
                    16 -0.760774644398795     
                    17  0.107727557175640     
                    18 -7.886465306711140E-003
                    19 -5.048577830492950E-002
                    20  0.645565592555172     
                    21 -1.308868970384710E-003
                    22 -8.346576467655480E-003
                    23  0.106878919142965     
                    24 -1.902370235490534E-002
                    25 -1.150527377770570E-004
                    26  4.614907060571030E-003
                    27 -2.618011799633480E-002
                    28 -2.606794409447010E-003
                    29 -0.114781463125584     
                    30 -3.298371410067400E-002
                    31 -0.114779425968945     
                    32 -3.298042330966560E-002
                    33  0.523890762983827     
                    34  0.225415522123824     
                    35  0.523856953171410     
                    36  0.225401541723068     
