[Molden Format]
[Atoms] AU
  N     1    7     0.0972132200   -0.2376293800    1.1274469600        
  C     2    6     0.1268252400   -0.0485622000   -1.2915243900        
  H     3    1     0.0040988200    1.3143352800    2.2662795200        
  H     4    1     0.1657498300   -1.9478586600    2.0132356500        
  H     5    1     0.0512493900    1.8042583100   -2.1606211200        
  H     6    1     0.2269902100   -1.7440440500   -2.4357691300        
[5D]
[7F]
[GTO]
  1  0
   s     6 1.00
  0.417351D+04  0.183480D-02
  0.627458D+03  0.139950D-01
  0.142902D+03  0.685870D-01
  0.402343D+02  0.232241D+00
  0.128202D+02  0.469070D+00
  0.439044D+01  0.360455D+00
   s     3 1.00
  0.116264D+02 -0.114961D+00
  0.271628D+01 -0.169118D+00
  0.772218D+00  0.114585D+01
   s     1 1.00
  0.212031D+00  0.100000D+01
   p     3 1.00
  0.116264D+02  0.675800D-01
  0.271628D+01  0.323907D+00
  0.772218D+00  0.740895D+00
   p     1 1.00
  0.212031D+00  0.100000D+01
   d     1 1.00
  0.800000D+00  0.100000D+01
  
  2  0
   s     6 1.00
  0.304752D+04  0.183470D-02
  0.457370D+03  0.140373D-01
  0.103949D+03  0.688426D-01
  0.292102D+02  0.232184D+00
  0.928666D+01  0.467941D+00
  0.316393D+01  0.362312D+00
   s     3 1.00
  0.786827D+01 -0.119332D+00
  0.188129D+01 -0.160854D+00
  0.544249D+00  0.114346D+01
   s     1 1.00
  0.168714D+00  0.100000D+01
   p     3 1.00
  0.786827D+01  0.689991D-01
  0.188129D+01  0.316424D+00
  0.544249D+00  0.744308D+00
   p     1 1.00
  0.168714D+00  0.100000D+01
   d     1 1.00
  0.800000D+00  0.100000D+01
  
  3  0
   s     3 1.00
  0.187311D+02  0.334946D-01
  0.282539D+01  0.234727D+00
  0.640122D+00  0.813757D+00
   s     1 1.00
  0.161278D+00  0.100000D+01
  
  4  0
   s     3 1.00
  0.187311D+02  0.334946D-01
  0.282539D+01  0.234727D+00
  0.640122D+00  0.813757D+00
   s     1 1.00
  0.161278D+00  0.100000D+01
  
  5  0
   s     3 1.00
  0.187311D+02  0.334946D-01
  0.282539D+01  0.234727D+00
  0.640122D+00  0.813757D+00
   s     1 1.00
  0.161278D+00  0.100000D+01
  
  6  0
   s     3 1.00
  0.187311D+02  0.334946D-01
  0.282539D+01  0.234727D+00
  0.640122D+00  0.813757D+00
   s     1 1.00
  0.161278D+00  0.100000D+01
  
[MO]
 Sym= __1_a__
 Ene=  0.000000000000000E+000
 Spin= Alpha
 Occup=    2.00000000000000     
                     1  0.995953143766872     
                     2  2.394582786498610E-002
                     3 -1.248134076708500E-002
                     4  1.051854198910630E-005
                     5  6.634871347215410E-005
                     6 -8.489880596743290E-004
                     7 -1.868238398377730E-005
                     8 -1.182086394550770E-004
                     9  1.513121315666140E-003
                    10  3.339035352469321E-004
                    11 -7.583731883416270E-006
                    12 -4.341331432058590E-005
                    13 -2.654146822855680E-005
                    14 -1.880199176559950E-006
                    15  9.641763058958680E-005
                    16 -6.758911560732090E-004
                    17  4.730476543184930E-003
                    18  6.236667828680980E-006
                    19  3.974440102871840E-005
                    20 -5.084335489233550E-004
                    21 -2.761914743482760E-005
                    22 -1.765779184364830E-004
                    23  2.258561757117560E-003
                    24 -6.966808775089689E-004
                    25  1.391292073902720E-005
                    26  9.818527829441361E-005
                    27 -4.251474260776760E-005
                    28 -5.679363890368320E-006
                    29 -1.556921524508860E-005
                    30  1.777587889203180E-003
                    31 -1.553187418185820E-005
                    32  1.777622552665160E-003
                    33 -2.205384475127320E-004
                    34 -1.248115679562290E-004
                    35 -2.205515561832220E-004
                    36 -1.248724623431500E-004
 Sym= __2_a__
 Ene=  0.000000000000000E+000
 Spin= Alpha
 Occup=    2.00000000000000     
                     1 -3.281130725814940E-004
                     2 -1.463854378442120E-004
                     3 -1.870754744302520E-004
                     4 -5.408514139654360E-006
                     5 -3.463566022956420E-005
                     6  4.430916725861230E-004
                     7 -1.088996995134250E-005
                     8 -6.941208037604610E-005
                     9  8.889186700262770E-004
                    10 -6.950206005049807E-004
                    11  1.687323435747660E-005
                    12  8.623207602115900E-005
                    13  1.089377158580294E-004
                    14  9.174431115821081E-006
                    15  0.996084531188535     
                    16  2.405894794738530E-002
                    17 -9.579126973702660E-003
                    18 -1.701547844229540E-005
                    19 -1.086070275748790E-004
                    20  1.389425044166250E-003
                    21 -1.141491675761040E-005
                    22 -7.321216021893019E-005
                    23  9.364544286714670E-004
                    24  8.806707526993082E-004
                    25 -2.630126895262040E-005
                    26 -9.002076859079190E-005
                    27 -3.867563677785420E-004
                    28 -3.601530873419320E-005
                    29 -4.103048539021440E-006
                    30  6.285554862159309E-005
                    31 -4.070066825313110E-006
                    32  6.291258887706030E-005
                    33 -4.052205654701650E-004
                    34  2.577042251960170E-003
                    35 -4.052223216936920E-004
                    36  2.577013807969530E-003
 Sym= __3_a__
 Ene=  0.000000000000000E+000
 Spin= Alpha
 Occup=    1.98372510868998     
                     1  0.195066733108100     
                     2 -0.411472147014181     
                     3 -0.412762627557476     
                     4 -5.124148913841040E-006
                     5  1.768828911400260E-005
                     6 -2.236716061293500E-004
                     7  1.689172965720890E-004
                     8  1.109496223739570E-003
                     9 -1.419180850016790E-002
                    10 -7.826849057899526E-003
                    11  5.711498259763400E-004
                    12 -5.231452414769230E-004
                    13  2.052211604823100E-002
                    14  1.995602971976190E-003
                    15  9.719378070481670E-002
                    16 -0.193125551781958     
                    17 -7.193136894438019E-002
                    18  1.220399087512980E-003
                    19  7.781334537200260E-003
                    20 -9.955263509258740E-002
                    21 -2.238970459125330E-004
                    22 -1.442833389816400E-003
                    23  1.846267975189030E-002
                    24 -1.781871246602819E-002
                    25  5.161782465894460E-004
                    26  1.883133914467190E-003
                    27  7.025905522107440E-003
                    28  6.507032182093240E-004
                    29 -0.121600976041930     
                    30  1.581037027865900E-003
                    31 -0.121600716123970     
                    32  1.581533569501440E-003
                    33 -4.178448710468200E-002
                    34 -4.967776355138380E-003
                    35 -4.178462152555440E-002
                    36 -4.967787388797010E-003
 Sym= __4_a__
 Ene=  0.000000000000000E+000
 Spin= Alpha
 Occup=    1.97227639953653     
                     1 -5.041973094468090E-002
                     2  0.109556760374971     
                     3  0.192238307971616     
                     4 -4.385102643632120E-003
                     5 -2.809834969944770E-002
                     6  0.359515550178357     
                     7 -1.998347021000250E-003
                     8 -1.281880211324380E-002
                     9  0.164020816815787     
                    10 -1.200667708462099E-002
                    11 -3.923321282208870E-005
                    12  2.789672686353740E-003
                    13 -1.490436251318596E-002
                    14 -1.488338761547880E-003
                    15  0.164555179042725     
                    16 -0.346804355480623     
                    17 -0.265468655162227     
                    18  5.852639169359940E-004
                    19  3.704819068573860E-003
                    20 -4.738968852060530E-002
                    21 -1.936756611765220E-004
                    22 -1.239378168838830E-003
                    23  1.585977770124200E-002
                    24 -8.209416650894540E-003
                    25  5.152573970446670E-004
                    26 -2.131774837083160E-004
                    27  1.720122315039642E-002
                    28  1.668606897322410E-003
                    29  0.133008851819484     
                    30  2.218675363034870E-002
                    31  0.133004995056303     
                    32  2.218673519190720E-002
                    33 -0.111538760780497     
                    34 -9.953125570775080E-003
                    35 -0.111539073816492     
                    36 -9.952878848735580E-003
 Sym= __5_a__
 Ene=  0.000000000000000E+000
 Spin= Alpha
 Occup=    1.96534533696471     
                     1 -4.490110288370610E-002
                     2  0.100398899354658     
                     3  8.588396788632340E-002
                     4  4.126297693113160E-003
                     5  2.643075856069020E-002
                     6 -0.338192129640226     
                     7  2.134421392665880E-003
                     8  1.368710237918690E-002
                     9 -0.175133135904187     
                    10  7.711670996938441E-003
                    11 -6.776163747766860E-005
                    12 -1.429354384711820E-003
                    13  4.891901358523460E-003
                    14  4.966817905654240E-004
                    15  5.563052053492230E-002
                    16 -0.111569862354781     
                    17 -0.229480498336831     
                    18 -5.346038066931990E-003
                    19 -3.414102412846820E-002
                    20  0.436804310529960     
                    21 -1.377614115450250E-003
                    22 -8.807972427241280E-003
                    23  0.112690414327113     
                    24  2.447216861648554E-002
                    25 -1.256885035149240E-004
                    26 -4.869573489719670E-003
                    27  1.985002161795148E-002
                    28  1.999033067229170E-003
                    29 -7.004967879229849E-002
                    30 -3.477941424606330E-002
                    31 -7.004487320954390E-002
                    32 -3.477902100777960E-002
                    33 -0.177863007817233     
                    34 -7.204904396421780E-002
                    35 -0.177859995846204     
                    36 -7.204853412742770E-002
 Sym= __6_a__
 Ene=  0.000000000000000E+000
 Spin= Alpha
 Occup=    1.96288415247644     
                     1  5.716530425208740E-007
                     2 -1.604250641871950E-006
                     3 -1.628333378224000E-006
                     4  2.205533908944860E-002
                     5 -0.465069469863452     
                     6 -3.607764109190250E-002
                     7  1.371784459669840E-002
                     8 -0.290584714859668     
                     9 -2.254424295987540E-002
                    10 -2.046525882761734E-003
                    11  8.013322592190030E-004
                    12 -1.514121038415940E-002
                    13 -1.200681674404012E-003
                    14  1.205124112851840E-004
                    15  7.565987092048570E-007
                    16 -2.190800161957210E-006
                    17 -1.816578087418620E-006
                    18  8.938128207348361E-003
                    19 -0.194457664694820     
                    20 -1.509263538106880E-002
                    21  2.107308412743760E-003
                    22 -5.018880681968030E-002
                    23 -3.897097620049450E-003
                    24 -1.620615640852627E-003
                    25  5.592442660205300E-004
                    26 -1.198116595752950E-002
                    27 -9.492168660002660E-004
                    28  1.048991635299450E-004
                    29 -0.204507847533745     
                    30 -4.311189422885640E-002
                    31  0.204512485223266     
                    32  4.311450049802420E-002
                    33 -7.169614844863950E-002
                    34 -2.245384161110820E-002
                    35  7.169803619244440E-002
                    36  2.245619000066060E-002
 Sym= __7_a__
 Ene=  0.000000000000000E+000
 Spin= Alpha
 Occup=    1.96076337718557     
                     1 -4.174175576196230E-006
                     2  1.127492481721580E-005
                     3  1.371041126637230E-005
                     4 -0.495020076087027     
                     5 -2.295384968030900E-002
                     6 -7.833593395378390E-003
                     7 -0.340069212341207     
                     8 -1.581934654975570E-002
                     9 -5.385052267113520E-003
                    10  4.628747665236907E-004
                    11  1.650044142537120E-002
                    12  8.071254570520520E-004
                    13 -1.393964382271564E-004
                    14 -1.299955694183860E-003
                    15  3.242401354018690E-006
                    16 -6.750122634453870E-006
                    17 -2.882656033837410E-006
                    18 -0.353520525333357     
                    19 -1.671661176305660E-002
                    20 -5.642205231442180E-003
                    21 -0.194546080392328     
                    22 -9.298303024531969E-003
                    23 -3.108674683593150E-003
                    24 -6.911782660071797E-004
                    25 -2.503027058879870E-002
                    26 -1.148176754554820E-003
                    27  2.145033877772140E-004
                    28  1.971420050582220E-003
                    29  4.030945188455410E-004
                    30  6.139188283673991E-005
                    31 -4.092599798377070E-004
                    32 -6.163668029851640E-005
                    33  1.073676989585560E-004
                    34  7.786183485483500E-006
                    35 -1.027670123783700E-004
                    36 -4.455142306622260E-006
 Sym= __8_a__
 Ene=  0.000000000000000E+000
 Spin= Alpha
 Occup=    1.00665217686811     
                     1 -4.417392273546420E-007
                     2  1.081801638288100E-006
                     3  2.915273060587510E-006
                     4  1.558934203384350E-003
                     5 -0.191190295073470     
                     6 -1.492541227711700E-002
                     7 -8.734226786386700E-004
                     8 -0.159073275988733     
                     9 -1.244506252378470E-002
                    10 -3.657998695109829E-003
                    11  8.780149378826420E-004
                    12 -2.698497495095880E-002
                    13 -2.132594352195400E-003
                    14  2.632933627340410E-004
                    15  1.287938344429080E-007
                    16 -2.977783573558240E-007
                    17 -9.276680684736501E-007
                    18 -1.068398317750860E-002
                    19  0.417244702729506     
                    20  3.247910786875030E-002
                    21 -1.086913625715410E-003
                    22  0.223866429435385     
                    23  1.748179169945290E-002
                    24 -5.087418403281863E-003
                    25  1.341681004930880E-003
                    26 -3.756085670402570E-002
                    27 -2.968932174706840E-003
                    28  3.592081922982990E-004
                    29 -0.116734174500755     
                    30 -5.382028901747340E-002
                    31  0.116735342397081     
                    32  5.382089156327290E-002
                    33  0.274911087715496     
                    34  0.115786437392759     
                    35 -0.274914261712625     
                    36 -0.115788578471131     
 Sym= __9_a__
 Ene=  0.000000000000000E+000
 Spin= Alpha
 Occup=    1.00446058335354     
                     1  4.504936571476960E-006
                     2 -1.152677459391060E-005
                     3 -2.302048306324950E-005
                     4  0.424819656098208     
                     5  1.697707541976500E-002
                     6  6.511249568467390E-003
                     7  0.470155692982792     
                     8  1.971825360178740E-002
                     9  7.282922450211010E-003
                    10  6.787808557655588E-004
                    11  2.693224767437300E-002
                    12  7.697061608487680E-004
                    13 -2.663173394747940E-004
                    14 -2.115319378388430E-003
                    15  9.719021220600420E-007
                    16 -5.226590020878740E-007
                    17 -1.295119171885300E-005
                    18 -0.540998855817524     
                    19 -1.840531634033320E-002
                    20 -8.049905203809160E-003
                    21 -0.541335131813873     
                    22 -2.200027520206760E-002
                    23 -8.340306364684890E-003
                    24  7.443543508940517E-004
                    25  3.027818541603620E-002
                    26  7.222610281078980E-004
                    27 -3.116880062041820E-004
                    28 -2.376052885711620E-003
                    29 -2.145278767191080E-003
                    30 -9.411854088441680E-004
                    31  2.160858279935380E-003
                    32  9.571187190565530E-004
                    33  5.085481359962840E-003
                    34  2.141035672590690E-003
                    35 -5.081883380957450E-003
                    36 -2.135752633566550E-003
 Sym= _10_a__
 Ene=  0.000000000000000E+000
 Spin= Alpha
 Occup=   2.025597237425630E-002
                     1 -8.052081154988480E-002
                     2  0.421433484772147     
                     3  0.261656448540691     
                     4  5.570753421034430E-003
                     5  3.557237886877030E-002
                     6 -0.454930004380522     
                     7  2.175924402041410E-003
                     8  1.389687471390110E-002
                     9 -0.177833420259488     
                    10 -6.149503775523338E-002
                    11  1.943352864488970E-003
                    12  5.852445405473030E-003
                    13  3.257739919568760E-002
                    14  3.060664607476650E-003
                    15  0.156860975186346     
                    16 -0.679387448022250     
                    17 -0.668888097551168     
                    18  2.246712915468090E-003
                    19  1.430585767287360E-002
                    20 -0.183043856560812     
                    21  9.918058516176890E-004
                    22  6.296029184064840E-003
                    23 -8.049211198199140E-002
                    24  2.218214552380179E-002
                    25 -4.700690031093340E-003
                    26  1.351306336293720E-002
                    27 -0.213585686361258     
                    28 -2.086557122447240E-002
                    29 -7.637721626444301E-002
                    30  1.469604946627460E-002
                    31 -7.636578447749340E-002
                    32  1.469947055930000E-002
                    33  0.432886945863540     
                    34  0.207729915787856     
                    35  0.432886347107462     
                    36  0.207733588566348     
 Sym= _11_a__
 Ene=  0.000000000000000E+000
 Spin= Alpha
 Occup=   1.787456551263870E-002
                     1  0.104761991015451     
                     2 -0.635433077477712     
                     3 -0.232267786159904     
                     4 -2.024688003095090E-003
                     5 -1.270749602212840E-002
                     6  0.162373007543685     
                     7 -2.019424276893960E-003
                     8 -1.296256394944330E-002
                     9  0.165861006940520     
                    10  9.304116669074451E-002
                    11 -3.948130057041980E-003
                    12 -4.919934038651390E-003
                    13 -0.100092516854155     
                    14 -9.592122485585211E-003
                    15  1.090114624737770E-002
                    16 -6.832204913406920E-002
                    17 -5.220098798566590E-002
                    18 -9.301525466967711E-003
                    19 -5.952098423668390E-002
                    20  0.761600134986073     
                    21 -3.263179208947640E-003
                    22 -2.080025282795310E-002
                    23  0.266132836360688     
                    24 -4.344648884986355E-002
                    25 -2.121745033357190E-003
                    26  1.780451079954190E-002
                    27 -0.153587432610657     
                    28 -1.510357666495420E-002
                    29  0.228950193731620     
                    30  5.275997126443820E-002
                    31  0.228931587205722     
                    32  5.275358430743850E-002
                    33  0.329896920978031     
                    34  0.178887978122108     
                    35  0.329891641795611     
                    36  0.178886587519701     
 Sym= _12_a__
 Ene=  0.000000000000000E+000
 Spin= Alpha
 Occup=   1.652659965375780E-002
                     1 -5.216652752844520E-006
                     2  3.505647344610900E-005
                     3 -1.870923782058740E-006
                     4  3.846025062189830E-002
                     5 -0.782371638778676     
                     6 -6.067050338417660E-002
                     7 -4.546913452965130E-003
                     8  9.725079701519580E-002
                     9  7.546122048447720E-003
                    10  2.273500289552836E-002
                    11 -8.536836639540510E-003
                    12  0.168216027560538     
                    13  1.333812435199702E-002
                    14 -1.402890186423000E-003
                    15  1.411855474548320E-006
                    16 -5.061752335101470E-006
                    17 -2.136435790888350E-006
                    18  5.786233182954480E-003
                    19 -0.120909342079189     
                    20 -9.380741171963041E-003
                    21  7.664619034606190E-003
                    22 -0.151846113243343     
                    23 -1.177202518406250E-002
                    24 -1.554727170500415E-002
                    25  5.853795624269680E-003
                    26 -0.115053760150266     
                    27 -9.119186401911981E-003
                    28  9.687772766156990E-004
                    29  0.436920700058404     
                    30  0.175735413699181     
                    31 -0.436961911683291     
                    32 -0.175751379424318     
                    33  0.160943020686370     
                    34  8.432008028884290E-002
                    35 -0.160933447186930     
                    36 -8.431770193719110E-002
 Sym= _13_a__
 Ene=  0.000000000000000E+000
 Spin= Alpha
 Occup=   1.574750356638430E-002
                     1 -6.426910813603980E-002
                     2  0.499575948173658     
                     3 -0.250989851048771     
                     4 -9.466731006689280E-003
                     5 -6.075052673767590E-002
                     6  0.777512215722048     
                     7 -4.430351312743050E-004
                     8 -2.764892326491130E-003
                     9  3.530225040108980E-002
                    10  1.707283868427249E-002
                    11  2.195361883550040E-003
                    12 -1.238600928573610E-002
                    13  0.129826002757936     
                    14  1.272873403594750E-002
                    15 -9.740711669065790E-003
                    16  6.123071371145440E-002
                    17  9.758481466783550E-002
                    18 -4.896299768627130E-003
                    19 -3.116331059649030E-002
                    20  0.398816480357666     
                    21 -2.492339241775410E-003
                    22 -1.596186474230010E-002
                    23  0.204352683552042     
                    24 -4.094834095286987E-002
                    25 -4.036592165672570E-004
                    26  1.058262039795200E-002
                    27 -6.458675527488800E-002
                    28 -6.407635302501720E-003
                    29 -0.401411271100509     
                    30 -0.159507304444768     
                    31 -0.401381591262466     
                    32 -0.159497256889770     
                    33  0.156981993694790     
                    34  4.597305985342910E-002
                    35  0.156999290103964     
                    36  4.598259132895910E-002
 Sym= _14_a__
 Ene=  0.000000000000000E+000
 Spin= Alpha
 Occup=   1.057990752203740E-002
                     1 -4.009188125187300E-006
                     2  4.873305875643050E-005
                     3 -3.654050031461710E-005
                     4 -0.956393308164912     
                     5 -4.229366865962950E-002
                     6 -1.498160196683770E-002
                     7   1.08848660358297     
                     8  5.021848831604090E-002
                     9  1.721344049778340E-002
                    10 -6.826986278714883E-004
                    11 -3.118305195150260E-002
                    12 -5.898708390922530E-005
                    13  3.935189943915160E-004
                    14  2.439397916492580E-003
                    15 -9.127037583068190E-007
                    16  8.767612173250699E-006
                    17 -1.417847672090820E-005
                    18 -0.267606412748376     
                    19 -1.702545775607660E-002
                    20 -4.611663644509790E-003
                    21 -4.302818614643710E-002
                    22 -2.584427897683530E-003
                    23 -7.247423426328390E-004
                    24  3.649738592054584E-003
                    25  0.136677011326049     
                    26  5.399383639095060E-003
                    27 -1.239207658360768E-003
                    28 -1.075351977723200E-002
                    29 -4.155498845582070E-004
                    30 -2.170400466887120E-004
                    31  4.049817739788080E-004
                    32  2.177732963486090E-004
                    33  2.425326652699990E-003
                    34  1.503977044551330E-003
                    35 -2.429947481942220E-003
                    36 -1.504329580070320E-003
 Sym= _15_a__
 Ene=  0.000000000000000E+000
 Spin= Alpha
 Occup=   1.048794539770740E-002
                     1  2.368063480521770E-008
                     2  9.102095194462670E-007
                     3 -4.492350918740290E-006
                     4 -2.333672911065470E-002
                     5  0.593248819555763     
                     6  4.609546729057040E-002
                     7  1.145615608082090E-002
                     8 -0.372332494882451     
                     9 -2.896699623203160E-002
                    10  3.405969989788352E-002
                    11 -1.263897350756660E-002
                    12  0.251965952591366     
                    13  1.996841066957188E-002
                    14 -2.137984028700940E-003
                    15 -8.680124024931000E-007
                    16  1.540008133016100E-006
                    17  7.377938664182240E-007
                    18  3.187090264476670E-002
                    19 -0.615492380966943     
                    20 -4.770624086274370E-002
                    21  6.120655473215170E-003
                    22 -0.110689514145870     
                    23 -8.576149483127500E-003
                    24 -2.507610716739017E-002
                    25  8.560013374505260E-003
                    26 -0.185419421220160     
                    27 -1.468016528904482E-002
                    28  1.620975168789610E-003
                    29 -3.289767533883420E-002
                    30 -4.786620181440090E-002
                    31  3.289296235526170E-002
                    32  4.786872150759310E-002
                    33  0.394498941296221     
                    34  0.228191096811056     
                    35 -0.394501133822146     
                    36 -0.228192482197642     
