[Molden Format]
[Atoms] AU
  N     1    7     0.0972132200   -0.2376293800    1.1274469600        
  C     2    6     0.1268252400   -0.0485622000   -1.2915243900        
  H     3    1     0.0040988200    1.3143352800    2.2662795200        
  H     4    1     0.1657498300   -1.9478586600    2.0132356500        
  H     5    1     0.0512493900    1.8042583100   -2.1606211200        
  H     6    1     0.2269902100   -1.7440440500   -2.4357691300        
[5D]
[7F]
[GTO]
  1  0
   s     6 1.00
  0.417351D+04  0.183480D-02
  0.627458D+03  0.139950D-01
  0.142902D+03  0.685870D-01
  0.402343D+02  0.232241D+00
  0.128202D+02  0.469070D+00
  0.439044D+01  0.360455D+00
   s     3 1.00
  0.116264D+02 -0.114961D+00
  0.271628D+01 -0.169118D+00
  0.772218D+00  0.114585D+01
   s     1 1.00
  0.212031D+00  0.100000D+01
   p     3 1.00
  0.116264D+02  0.675800D-01
  0.271628D+01  0.323907D+00
  0.772218D+00  0.740895D+00
   p     1 1.00
  0.212031D+00  0.100000D+01
   d     1 1.00
  0.800000D+00  0.100000D+01
  
  2  0
   s     6 1.00
  0.304752D+04  0.183470D-02
  0.457370D+03  0.140373D-01
  0.103949D+03  0.688426D-01
  0.292102D+02  0.232184D+00
  0.928666D+01  0.467941D+00
  0.316393D+01  0.362312D+00
   s     3 1.00
  0.786827D+01 -0.119332D+00
  0.188129D+01 -0.160854D+00
  0.544249D+00  0.114346D+01
   s     1 1.00
  0.168714D+00  0.100000D+01
   p     3 1.00
  0.786827D+01  0.689991D-01
  0.188129D+01  0.316424D+00
  0.544249D+00  0.744308D+00
   p     1 1.00
  0.168714D+00  0.100000D+01
   d     1 1.00
  0.800000D+00  0.100000D+01
  
  3  0
   s     3 1.00
  0.187311D+02  0.334946D-01
  0.282539D+01  0.234727D+00
  0.640122D+00  0.813757D+00
   s     1 1.00
  0.161278D+00  0.100000D+01
  
  4  0
   s     3 1.00
  0.187311D+02  0.334946D-01
  0.282539D+01  0.234727D+00
  0.640122D+00  0.813757D+00
   s     1 1.00
  0.161278D+00  0.100000D+01
  
  5  0
   s     3 1.00
  0.187311D+02  0.334946D-01
  0.282539D+01  0.234727D+00
  0.640122D+00  0.813757D+00
   s     1 1.00
  0.161278D+00  0.100000D+01
  
  6  0
   s     3 1.00
  0.187311D+02  0.334946D-01
  0.282539D+01  0.234727D+00
  0.640122D+00  0.813757D+00
   s     1 1.00
  0.161278D+00  0.100000D+01
  
[MO]
 Sym= __1_a__
 Ene=  0.000000000000000E+000
 Spin= Alpha
 Occup=    2.00000000000000     
                     1  0.995953143766872     
                     2  2.394582786498610E-002
                     3 -1.248134076708500E-002
                     4  1.051854198910630E-005
                     5  6.634871347215410E-005
                     6 -8.489880596743290E-004
                     7 -1.868238398377730E-005
                     8 -1.182086394550770E-004
                     9  1.513121315666140E-003
                    10  3.339035352469321E-004
                    11 -7.583731883416270E-006
                    12 -4.341331432058590E-005
                    13 -2.654146822855680E-005
                    14 -1.880199176559950E-006
                    15  9.641763058958680E-005
                    16 -6.758911560732090E-004
                    17  4.730476543184930E-003
                    18  6.236667828680980E-006
                    19  3.974440102871840E-005
                    20 -5.084335489233550E-004
                    21 -2.761914743482760E-005
                    22 -1.765779184364830E-004
                    23  2.258561757117560E-003
                    24 -6.966808775089689E-004
                    25  1.391292073902720E-005
                    26  9.818527829441361E-005
                    27 -4.251474260776760E-005
                    28 -5.679363890368320E-006
                    29 -1.556921524508860E-005
                    30  1.777587889203180E-003
                    31 -1.553187418185820E-005
                    32  1.777622552665160E-003
                    33 -2.205384475127320E-004
                    34 -1.248115679562290E-004
                    35 -2.205515561832220E-004
                    36 -1.248724623431500E-004
 Sym= __2_a__
 Ene=  0.000000000000000E+000
 Spin= Alpha
 Occup=    2.00000000000000     
                     1 -3.281130725814940E-004
                     2 -1.463854378442120E-004
                     3 -1.870754744302520E-004
                     4 -5.408514139654360E-006
                     5 -3.463566022956420E-005
                     6  4.430916725861230E-004
                     7 -1.088996995134250E-005
                     8 -6.941208037604610E-005
                     9  8.889186700262770E-004
                    10 -6.950206005049807E-004
                    11  1.687323435747660E-005
                    12  8.623207602115900E-005
                    13  1.089377158580294E-004
                    14  9.174431115821081E-006
                    15  0.996084531188535     
                    16  2.405894794738530E-002
                    17 -9.579126973702660E-003
                    18 -1.701547844229540E-005
                    19 -1.086070275748790E-004
                    20  1.389425044166250E-003
                    21 -1.141491675761040E-005
                    22 -7.321216021893019E-005
                    23  9.364544286714670E-004
                    24  8.806707526993082E-004
                    25 -2.630126895262040E-005
                    26 -9.002076859079190E-005
                    27 -3.867563677785420E-004
                    28 -3.601530873419320E-005
                    29 -4.103048539021440E-006
                    30  6.285554862159309E-005
                    31 -4.070066825313110E-006
                    32  6.291258887706030E-005
                    33 -4.052205654701650E-004
                    34  2.577042251960170E-003
                    35 -4.052223216936920E-004
                    36  2.577013807969530E-003
 Sym= __3_a__
 Ene=  0.000000000000000E+000
 Spin= Alpha
 Occup=    1.98158276809573     
                     1  0.192554916472337     
                     2 -0.409484127806855     
                     3 -0.413293041238700     
                     4  6.230322575166540E-004
                     5  4.049906707914400E-003
                     6 -5.180195934103800E-002
                     7  4.559159178448610E-004
                     8  2.950745305846550E-003
                     9 -3.774467204448730E-002
                    10 -6.155072574156918E-003
                    11  5.373471969935510E-004
                    12 -7.562120514239020E-004
                    13  2.059057004290700E-002
                    14  2.007102084227730E-003
                    15  9.341673640474291E-002
                    16 -0.189970879224116     
                    17 -6.730731126908530E-002
                    18  6.323454100998940E-004
                    19  4.055468087792680E-003
                    20 -5.185487840227450E-002
                    21 -3.846466747631110E-004
                    22 -2.447164097023520E-003
                    23  3.132332927239450E-002
                    24 -1.596487585993473E-002
                    25  5.058293099054200E-004
                    26  1.516983563091250E-003
                    27  8.493130833034540E-003
                    28  7.984135746717380E-004
                    29 -0.133359816724977     
                    30 -3.355304293225970E-003
                    31 -0.133359676607930     
                    32 -3.354692099348750E-003
                    33 -5.377629130684200E-002
                    34 -1.505631535453740E-002
                    35 -5.377832167788230E-002
                    36 -1.505734022236980E-002
 Sym= __4_a__
 Ene=  0.000000000000000E+000
 Spin= Alpha
 Occup=    1.97375000981851     
                     1  6.728574377168429E-002
                     2 -0.147467692892411     
                     3 -0.239879009971217     
                     4  2.036751207227100E-003
                     5  1.301184318117790E-002
                     6 -0.166536738223372     
                     7  6.498855682843270E-004
                     8  4.137255252370940E-003
                     9 -5.298475355018180E-002
                    10  1.053717212819849E-002
                    11 -2.347059518534160E-005
                    12 -2.219226567762150E-003
                    13  1.011671973097406E-002
                    14  1.016228619331360E-003
                    15 -0.174622193698906     
                    16  0.372302468470560     
                    17  0.356320662625234     
                    18  1.777909782668830E-003
                    19  1.139248285862960E-002
                    20 -0.145676332106398     
                    21  5.050688509881970E-004
                    22  3.249897868901180E-003
                    23 -4.152587344610610E-002
                    24 -7.859577535909766E-003
                    25 -3.114219701470430E-004
                    26  2.936542288727790E-003
                    27 -2.411766781754500E-002
                    28 -2.381285926949980E-003
                    29 -8.514617229905190E-002
                    30 -4.211132573623910E-003
                    31 -8.514002945793230E-002
                    32 -4.209377254311230E-003
                    33  0.171196713995316     
                    34  4.816636045342700E-002
                    35  0.171188530463060     
                    36  4.816285235535150E-002
 Sym= __5_a__
 Ene=  0.000000000000000E+000
 Spin= Alpha
 Occup=    1.97299837281957     
                     1  1.488829948451740E-006
                     2 -3.486122596016450E-006
                     3 -5.986968599287320E-006
                     4  1.454581094873610E-002
                     5 -0.292973622054923     
                     6 -2.272718367795890E-002
                     7  7.550305635893280E-003
                     8 -0.151841551952578     
                     9 -1.177883922584750E-002
                    10  6.045792814953588E-004
                    11 -2.260039920929960E-004
                    12  4.474581803681940E-003
                    13  3.546599383180600E-004
                    14 -4.030005001133720E-005
                    15 -6.522294569818540E-007
                    16  1.049456499989380E-006
                    17  1.726156332710580E-007
                    18  2.065104906057670E-002
                    19 -0.417495828833499     
                    20 -3.237474112842860E-002
                    21  9.070273376968181E-003
                    22 -0.183519395956701     
                    23 -1.423044222841010E-002
                    24  8.511391168494910E-004
                    25 -3.173005212672990E-004
                    26  6.299807098679650E-003
                    27  4.986859036849600E-004
                    28 -5.279444056587320E-005
                    29 -0.105442601342107     
                    30 -5.082180013212060E-004
                    31  0.105439743561139     
                    32  5.083861503819950E-004
                    33 -0.181391581030897     
                    34 -7.419939120439240E-002
                    35  0.181392575571094     
                    36  7.420075682713009E-002
 Sym= __6_a__
 Ene=  0.000000000000000E+000
 Spin= Alpha
 Occup=    1.96896568061428     
                     1  1.509960315047960E-006
                     2 -3.181592133186230E-006
                     3 -6.435195613403890E-006
                     4 -2.101121858820690E-002
                     5  0.424985328276456     
                     6  3.296026280397200E-002
                     7 -1.512806385241310E-002
                     8  0.306181045161893     
                     9  2.374817402899860E-002
                    10  4.173316933725220E-003
                    11 -1.566734666206660E-003
                    12  3.087208578522780E-002
                    13  2.446845018049260E-003
                    14 -2.554740627130460E-004
                    15 -2.959057102028940E-006
                    16  6.582447764518810E-006
                    17  8.720794550526040E-006
                    18  1.353590809824410E-002
                    19 -0.273204583131386     
                    20 -2.119006878968940E-002
                    21  1.015006859651620E-002
                    22 -0.205221195831867     
                    23 -1.591456545580200E-002
                    24  4.494330546628495E-003
                    25 -1.686729317817950E-003
                    26  3.326095390503150E-002
                    27  2.635015483821620E-003
                    28 -2.796044969350580E-004
                    29  0.204324695349260     
                    30  6.604308519929369E-002
                    31 -0.204329475197757     
                    32 -6.604456300016109E-002
                    33 -0.156476520347072     
                    34 -7.063649561978090E-002
                    35  0.156483933965434     
                    36  7.063929471022069E-002
 Sym= __7_a__
 Ene=  0.000000000000000E+000
 Spin= Alpha
 Occup=    1.95950256066679     
                     1  3.987489656950490E-002
                     2 -8.966556063765251E-002
                     3 -4.887362339048040E-002
                     4 -5.704066379530960E-003
                     5 -3.658928402902600E-002
                     6  0.468073006541185     
                     7 -2.799669876273830E-003
                     8 -1.799552943883130E-002
                     9  0.230205408833235     
                    10 -1.748696628863973E-002
                    11  1.715728129421680E-004
                    12  3.165044229146480E-003
                    13 -1.011311601374960E-002
                    14 -1.029783298921620E-003
                    15  3.196423252245090E-002
                    16 -7.697551621840309E-002
                    17  0.104758023313937     
                    18  5.219923085316280E-003
                    19  3.331706242015530E-002
                    20 -0.426319256229600     
                    21  8.771299369194629E-004
                    22  5.619550114483490E-003
                    23 -7.191782192664030E-002
                    24 -3.483676498452666E-002
                    25  5.142238337138250E-004
                    26  5.620333021623550E-003
                    27 -1.131393401922002E-002
                    28 -1.185449029725120E-003
                    29  0.104176936774481     
                    30  3.796362930239010E-002
                    31  0.104177379969165     
                    32  3.796427813160670E-002
                    33  9.526363942229100E-002
                    34  5.972171243773470E-002
                    35  9.526449752299269E-002
                    36  5.972245761865380E-002
 Sym= __8_a__
 Ene=  0.000000000000000E+000
 Spin= Alpha
 Occup=    1.48372425566563     
                     1 -5.052081105380280E-006
                     2  1.377052398190880E-005
                     3  2.375417470102270E-005
                     4 -0.618585908134768     
                     5 -2.987062190022830E-002
                     6 -9.880819228885750E-003
                     7 -0.606796507517766     
                     8 -2.929846637377960E-002
                     9 -9.698010301538650E-003
                    10  1.718661871794291E-004
                    11  6.151054638137680E-003
                    12  2.919356981739530E-004
                    13 -5.469362663901820E-005
                    14 -4.845640493840820E-004
                    15 -8.449403372310570E-008
                    16 -1.542097865313470E-006
                    17  1.312721333772430E-005
                    18  0.215716741167568     
                    19  1.037434010753250E-002
                    20  3.430279561457310E-003
                    21  0.324169688627397     
                    22  1.562855965208950E-002
                    23  5.182452718627150E-003
                    24 -1.067922523380164E-003
                    25 -3.846065693247070E-002
                    26 -1.807618747097160E-003
                    27  3.256700349849700E-004
                    28  3.029367595943040E-003
                    29  2.949594323365440E-006
                    30  1.622807859344570E-006
                    31 -1.703453014272050E-005
                    32 -1.150924262276200E-005
                    33 -1.369373183688960E-005
                    34 -3.713778432767780E-006
                    35  1.752649336274030E-005
                    36  1.888590862609570E-006
 Sym= __9_a__
 Ene=  0.000000000000000E+000
 Spin= Alpha
 Occup=   0.502641213644203     
                     1  7.495617030121360E-007
                     2 -3.659968699461690E-006
                     3  1.294217785631420E-005
                     4  0.197731506044466     
                     5  9.523321936178910E-003
                     6  3.154037533813520E-003
                     7 -0.100607182867465     
                     8 -4.878535386369540E-003
                     9 -1.613340388270200E-003
                    10 -1.098689458678728E-003
                    11 -3.961117220449470E-002
                    12 -1.864187630743570E-003
                    13  3.350638184248220E-004
                    14  3.119888406177840E-003
                    15 -1.997285943024310E-006
                    16  1.815862033581350E-006
                    17  1.108091602353030E-005
                    18  0.582122933020968     
                    19  2.809678721501890E-002
                    20  9.318012769535370E-003
                    21  0.534671420870403     
                    22  2.581634038980410E-002
                    23  8.556560509217281E-003
                    24  7.502231456529524E-005
                    25  2.667120534606350E-003
                    26  1.255926853021800E-004
                    27 -2.196461478693560E-005
                    28 -2.101851102359230E-004
                    29 -3.057377339653970E-006
                    30  7.791510913066430E-006
                    31 -7.434306523108100E-006
                    32 -2.602123918016210E-005
                    33  1.217488094759390E-006
                    34  2.157015448119960E-006
                    35 -1.158990248312340E-005
                    36 -1.357821682074740E-005
 Sym= _10_a__
 Ene=  0.000000000000000E+000
 Spin= Alpha
 Occup=   2.783423091345920E-002
                     1 -9.712428643130790E-002
                     2  0.447851839669153     
                     3  0.624105435464023     
                     4  8.222989094765709E-003
                     5  5.259714631964150E-002
                     6 -0.672739152587122     
                     7  5.043169404638560E-003
                     8  3.208355488418580E-002
                     9 -0.410453256568001     
                    10 -0.111548346403774     
                    11  3.170652840188380E-003
                    12  1.203927118910090E-002
                    13  4.074015844319340E-002
                    14  3.747445462092810E-003
                    15  9.724650724979610E-002
                    16 -0.433835504689399     
                    17 -0.574178314471363     
                    18  9.453955781814270E-003
                    19  6.033370702425850E-002
                    20 -0.772075968877166     
                    21  5.696720722322060E-003
                    22  3.646829160689220E-002
                    23 -0.466620421026182     
                    24  3.910254013552204E-002
                    25 -2.946793899118280E-004
                    26 -7.391309936703270E-003
                    27  2.668780133026760E-002
                    28  2.704812184595250E-003
                    29 -4.788228977584310E-002
                    30  6.793309129090989E-002
                    31 -4.787016284570060E-002
                    32  6.794045651878280E-002
                    33  4.120029339773650E-002
                    34 -5.563420209000220E-002
                    35  4.119308318863820E-002
                    36 -5.563898964290320E-002
 Sym= _11_a__
 Ene=  0.000000000000000E+000
 Spin= Alpha
 Occup=   1.824836685173790E-002
                     1  1.532310074485830E-005
                     2 -1.124615353632530E-004
                     3  8.258779330556329E-006
                     4 -4.559092257295320E-002
                     5  0.920989816918795     
                     6  7.136688571799280E-002
                     7  1.057002931197320E-002
                     8 -0.214275433562916     
                     9 -1.661608034127010E-002
                    10 -9.547179961838258E-003
                    11  3.598625587892750E-003
                    12 -7.067437427248750E-002
                    13 -5.617984281941980E-003
                    14  5.790046429755360E-004
                    15  7.080675880748790E-006
                    16 -5.361666381880110E-005
                    17 -2.044278311973040E-005
                    18  1.066380168030490E-002
                    19 -0.214925306558715     
                    20 -1.662692415698950E-002
                    21 -6.901744505696130E-003
                    22  0.139653692026213     
                    23  1.083399152008590E-002
                    24  7.502056210571049E-003
                    25 -2.840337765528780E-003
                    26  5.551680910447370E-002
                    27  4.395497044774300E-003
                    28 -4.667289785211600E-004
                    29 -0.405422042252331     
                    30 -0.213338108634139     
                    31  0.405535543915790     
                    32  0.213399505814819     
                    33  1.208376362860250E-003
                    34  5.810099556376410E-002
                    35 -1.156005033367140E-003
                    36 -5.804748465645670E-002
 Sym= _12_a__
 Ene=  0.000000000000000E+000
 Spin= Alpha
 Occup=   1.804959039847970E-002
                     1  9.499224219889750E-002
                     2 -0.717722673418714     
                     3  0.106017351448976     
                     4  6.558768834514880E-003
                     5  4.204875404086660E-002
                     6 -0.539636341414459     
                     7 -1.709218661025260E-004
                     8 -1.092066195041920E-003
                     9  1.434157093019940E-002
                    10  2.507627493751068E-002
                    11 -2.744704218148510E-003
                    12  5.274350541352420E-003
                    13 -0.112036046518714     
                    14 -1.094218044300000E-002
                    15  5.754033230687970E-002
                    16 -0.408144562493569     
                    17 -0.168540150045156     
                    18 -2.301487647119850E-003
                    19 -1.478320071251730E-002
                    20  0.189633301406285     
                    21  1.116217213705000E-004
                    22  6.534276732304000E-004
                    23 -8.727042841538600E-003
                    24  1.009131830391991E-002
                    25 -6.320697689922540E-004
                    26  2.351206872600250E-004
                    27 -2.095524409505860E-002
                    28 -2.032273553535940E-003
                    29  0.374149852204424     
                    30  0.203578025511673     
                    31  0.374025292170938     
                    32  0.203515114375773     
                    33  0.181564000810934     
                    34  0.179619894444777     
                    35  0.181556039115890     
                    36  0.179632029392944     
 Sym= _13_a__
 Ene=  0.000000000000000E+000
 Spin= Alpha
 Occup=   1.592477993887060E-002
                     1  1.603804755669930E-006
                     2 -9.482894502447111E-006
                     3  1.883342368834040E-006
                     4 -3.021065832191880E-003
                     5  6.091371839941820E-002
                     6  4.725656270584020E-003
                     7  4.711901536087370E-003
                     8 -9.455422690569849E-002
                     9 -7.333537039103190E-003
                    10  2.197850743654457E-002
                    11 -8.216675911126081E-003
                    12  0.162592031606285     
                    13  1.288408527012410E-002
                    14 -1.370786885619950E-003
                    15 -3.947246697256000E-006
                    16  2.608109130733860E-005
                    17 -9.808546739245840E-008
                    18  4.312685631340580E-002
                    19 -0.870582043269563     
                    20 -6.751786800923060E-002
                    21 -2.296444928410640E-003
                    22  4.582236580013630E-002
                    23  3.549121431082530E-003
                    24 -1.203412750314638E-002
                    25  4.493670626678900E-003
                    26 -8.904825369420930E-002
                    27 -7.055061248100860E-003
                    28  7.495469851490510E-004
                    29  0.129874696236511     
                    30 -5.068959949128960E-002
                    31 -0.129866676097230     
                    32  5.069295459236850E-002
                    33  0.472500253111823     
                    34  0.242564643849493     
                    35 -0.472527741775862     
                    36 -0.242581382522136     
 Sym= _14_a__
 Ene=  0.000000000000000E+000
 Spin= Alpha
 Occup=   1.532831960086320E-002
                     1  5.459011247758150E-002
                     2 -0.372209825058612     
                     3  0.216909347496655     
                     4  2.544089197588270E-003
                     5  1.641858283544050E-002
                     6 -0.210086829834807     
                     7  5.391503170161010E-004
                     8  3.360942695308060E-003
                     9 -4.290776020731800E-002
                    10  1.256364297738683E-002
                    11 -1.680853990471920E-003
                    12  3.846995829911890E-003
                    13 -7.185792850918160E-002
                    14 -7.030530953664040E-003
                    15 -0.114185674597070     
                    16  0.793305915102860     
                    17 -4.683545221607320E-002
                    18  5.632403190865740E-003
                    19  3.600334651100500E-002
                    20 -0.460407574017719     
                    21  2.052292615526100E-003
                    22  1.317837136935610E-002
                    23 -0.168642666085476     
                    24  1.158079986027584E-002
                    25  3.473166320310600E-004
                    26 -3.922565732252750E-003
                    27  3.033562919730120E-002
                    28  2.978844907093670E-003
                    29  0.227037680762286     
                    30  6.680422082541040E-002
                    31  0.227047696870123     
                    32  6.680365709807430E-002
                    33 -0.466654891217512     
                    34 -0.275947480303721     
                    35 -0.466629853746643     
                    36 -0.275934703736882     
