[Molden Format]
[Atoms] AU
  N     1    7     0.0972132200   -0.2376293800    1.1274469600        
  C     2    6     0.1268252400   -0.0485622000   -1.2915243900        
  H     3    1     0.0040988200    1.3143352800    2.2662795200        
  H     4    1     0.1657498300   -1.9478586600    2.0132356500        
  H     5    1     0.0512493900    1.8042583100   -2.1606211200        
  H     6    1     0.2269902100   -1.7440440500   -2.4357691300        
[5D]
[7F]
[GTO]
  1  0
   s     6 1.00
  0.417351D+04  0.183480D-02
  0.627458D+03  0.139950D-01
  0.142902D+03  0.685870D-01
  0.402343D+02  0.232241D+00
  0.128202D+02  0.469070D+00
  0.439044D+01  0.360455D+00
   s     3 1.00
  0.116264D+02 -0.114961D+00
  0.271628D+01 -0.169118D+00
  0.772218D+00  0.114585D+01
   s     1 1.00
  0.212031D+00  0.100000D+01
   p     3 1.00
  0.116264D+02  0.675800D-01
  0.271628D+01  0.323907D+00
  0.772218D+00  0.740895D+00
   p     1 1.00
  0.212031D+00  0.100000D+01
   d     1 1.00
  0.800000D+00  0.100000D+01
  
  2  0
   s     6 1.00
  0.304752D+04  0.183470D-02
  0.457370D+03  0.140373D-01
  0.103949D+03  0.688426D-01
  0.292102D+02  0.232184D+00
  0.928666D+01  0.467941D+00
  0.316393D+01  0.362312D+00
   s     3 1.00
  0.786827D+01 -0.119332D+00
  0.188129D+01 -0.160854D+00
  0.544249D+00  0.114346D+01
   s     1 1.00
  0.168714D+00  0.100000D+01
   p     3 1.00
  0.786827D+01  0.689991D-01
  0.188129D+01  0.316424D+00
  0.544249D+00  0.744308D+00
   p     1 1.00
  0.168714D+00  0.100000D+01
   d     1 1.00
  0.800000D+00  0.100000D+01
  
  3  0
   s     3 1.00
  0.187311D+02  0.334946D-01
  0.282539D+01  0.234727D+00
  0.640122D+00  0.813757D+00
   s     1 1.00
  0.161278D+00  0.100000D+01
  
  4  0
   s     3 1.00
  0.187311D+02  0.334946D-01
  0.282539D+01  0.234727D+00
  0.640122D+00  0.813757D+00
   s     1 1.00
  0.161278D+00  0.100000D+01
  
  5  0
   s     3 1.00
  0.187311D+02  0.334946D-01
  0.282539D+01  0.234727D+00
  0.640122D+00  0.813757D+00
   s     1 1.00
  0.161278D+00  0.100000D+01
  
  6  0
   s     3 1.00
  0.187311D+02  0.334946D-01
  0.282539D+01  0.234727D+00
  0.640122D+00  0.813757D+00
   s     1 1.00
  0.161278D+00  0.100000D+01
  
[MO]
 Sym= __1_A__
 Ene=   1.00000000000000     
 Spin= Alpha
 Occup=    1.00000000000000     
                     1  0.995953143766872     
                     2  2.394582786498606E-002
                     3 -1.248134076708497E-002
                     4  1.051854198910631E-005
                     5  6.634871347215411E-005
                     6 -8.489880596743292E-004
                     7 -1.868238398377727E-005
                     8 -1.182086394550772E-004
                     9  1.513121315666144E-003
                    10  3.339035352469321E-004
                    11 -7.583731883416271E-006
                    12 -4.341331432058586E-005
                    13 -2.654146822855682E-005
                    14 -1.880199176559953E-006
                    15  9.641763058958680E-005
                    16 -6.758911560732086E-004
                    17  4.730476543184933E-003
                    18  6.236667828680982E-006
                    19  3.974440102871842E-005
                    20 -5.084335489233553E-004
                    21 -2.761914743482757E-005
                    22 -1.765779184364829E-004
                    23  2.258561757117558E-003
                    24 -6.966808775089682E-004
                    25  1.391292073902717E-005
                    26  9.818527829441355E-005
                    27 -4.251474260776760E-005
                    28 -5.679363890368316E-006
                    29 -1.556921524508859E-005
                    30  1.777587889203178E-003
                    31 -1.553187418185819E-005
                    32  1.777622552665159E-003
                    33 -2.205384475127323E-004
                    34 -1.248115679562289E-004
                    35 -2.205515561832218E-004
                    36 -1.248724623431503E-004
 Sym= __2_A__
 Ene=   2.00000000000000     
 Spin= Alpha
 Occup=    1.00000000000000     
                     1 -3.281130725814944E-004
                     2 -1.463854378442120E-004
                     3 -1.870754744302525E-004
                     4 -5.408514139654358E-006
                     5 -3.463566022956416E-005
                     6  4.430916725861233E-004
                     7 -1.088996995134253E-005
                     8 -6.941208037604610E-005
                     9  8.889186700262771E-004
                    10 -6.950206005049823E-004
                    11  1.687323435747659E-005
                    12  8.623207602115898E-005
                    13  1.089377158580294E-004
                    14  9.174431115821082E-006
                    15  0.996084531188535     
                    16  2.405894794738525E-002
                    17 -9.579126973702662E-003
                    18 -1.701547844229544E-005
                    19 -1.086070275748786E-004
                    20  1.389425044166248E-003
                    21 -1.141491675761045E-005
                    22 -7.321216021893018E-005
                    23  9.364544286714669E-004
                    24  8.806707526993092E-004
                    25 -2.630126895262043E-005
                    26 -9.002076859079192E-005
                    27 -3.867563677785412E-004
                    28 -3.601530873419323E-005
                    29 -4.103048539021440E-006
                    30  6.285554862159305E-005
                    31 -4.070066825313112E-006
                    32  6.291258887706031E-005
                    33 -4.052205654701646E-004
                    34  2.577042251960168E-003
                    35 -4.052223216936924E-004
                    36  2.577013807969534E-003
 Sym= __3_A__
 Ene=   3.00000000000000     
 Spin= Alpha
 Occup=    1.00000000000000     
                     1 -0.191716455617923     
                     2  0.403264885279543     
                     3  0.407752955855310     
                     4  1.005935092152276E-003
                     5  6.381491700526509E-003
                     6 -8.165938037020293E-002
                     7  3.422331901893275E-004
                     8  2.157676116505106E-003
                     9 -2.761681370302333E-002
                    10  1.182570676889679E-002
                    11 -5.849363919295134E-004
                    12 -3.009641867468862E-004
                    13 -1.691454632071756E-002
                    14 -1.633803587771371E-003
                    15 -0.110055819564370     
                    16  0.223755226306572     
                    17  6.682812179887467E-002
                    18 -1.835044626820338E-003
                    19 -1.172362620311625E-002
                    20  0.149989561743892     
                    21  1.939835352766466E-004
                    22  1.236454367269309E-003
                    23 -1.581972769055274E-002
                    24  2.423293879750132E-002
                    25 -6.412681616883919E-004
                    26 -2.798289511533308E-003
                    27 -6.488917584703232E-003
                    28 -5.837598634392328E-004
                    29  9.454654168773255E-002
                    30 -1.127359879603567E-002
                    31  9.454768467323478E-002
                    32 -1.127397475126040E-002
                    33  3.745020426219246E-002
                    34 -1.265584252672726E-003
                    35  3.745081356415868E-002
                    36 -1.265293859267349E-003
 Sym= __4_A__
 Ene=   4.00000000000000     
 Spin= Alpha
 Occup=    1.00000000000000     
                     1 -7.869516450043536E-002
                     2  0.166936915184163     
                     3  0.264365985290110     
                     4 -3.533521740676059E-003
                     5 -2.264098665857485E-002
                     6  0.289696002951650     
                     7 -1.540700796786693E-003
                     8 -9.884420985605571E-003
                     9  0.126482109665286     
                    10 -1.255311168436541E-002
                    11 -7.804752584701724E-005
                    12  3.059748257533039E-003
                    13 -1.743014823762834E-002
                    14 -1.737390762508343E-003
                    15  0.161648768470353     
                    16 -0.341658852457337     
                    17 -0.302260988198770     
                    18 -5.200995438023995E-004
                    19 -3.348166595278959E-003
                    20  4.284816598769831E-002
                    21 -3.592533321100841E-004
                    22 -2.297832056266907E-003
                    23  2.939926293522079E-002
                    24 -1.990977696085099E-003
                    25  4.682609130706664E-004
                    26 -1.391263576565273E-003
                    27  2.147971403315282E-002
                    28  2.101918109871683E-003
                    29  0.127393574597192     
                    30  1.119131231042676E-002
                    31  0.127390080656264     
                    32  1.119136844385180E-002
                    33 -0.134295144701960     
                    34 -2.292929090836091E-002
                    35 -0.134294970932719     
                    36 -2.292917987248365E-002
 Sym= __5_A__
 Ene=   5.00000000000000     
 Spin= Alpha
 Occup=    1.00000000000000     
                     1 -3.648383427575341E-007
                     2  1.108147458378867E-006
                     3  8.898281867108433E-007
                     4 -2.373431246811150E-002
                     5  0.478922029591251     
                     6  3.714814131034734E-002
                     7 -1.557116043857886E-002
                     8  0.314195529814556     
                     9  2.437161061507455E-002
                    10  2.677343608924641E-003
                    11 -1.005834200477577E-003
                    12  1.980443286688226E-002
                    13  1.569610576858216E-003
                    14 -1.618582137915499E-004
                    15 -1.985862796516705E-006
                    16  4.614592414359812E-006
                    17  6.898896334776176E-006
                    18 -8.374600027081609E-003
                    19  0.169012926751042     
                    20  1.310154688299102E-002
                    21 -1.021454099462582E-003
                    22  2.060819256272384E-002
                    23  1.596507040054524E-003
                    24  1.689351906667225E-003
                    25 -6.355544418329039E-004
                    26  1.250220547222938E-002
                    27  9.905739505901784E-004
                    28 -1.053215466041015E-004
                    29  0.208055283807658     
                    30  3.654973019057006E-002
                    31 -0.208055363735614     
                    32 -3.655069162927872E-002
                    33  5.689159840168859E-002
                    34  2.272965199664531E-002
                    35 -5.688584968510754E-002
                    36 -2.272851192467431E-002
 Sym= __6_A__
 Ene=   6.00000000000000     
 Spin= Alpha
 Occup=    1.00000000000000     
                     1  1.061791311753732E-002
                     2 -2.598227285974401E-002
                     3 -9.119295598430768E-003
                     4 -4.806956482677682E-003
                     5 -3.082754765354815E-002
                     6  0.394313150895975     
                     7 -2.595722781629714E-003
                     8 -1.666791082650020E-002
                     9  0.213185286148865     
                    10 -1.273132769493563E-002
                    11  2.631617330236939E-005
                    12  2.690547811267144E-003
                    13 -1.235402602228241E-002
                    14 -1.239744473074824E-003
                    15 -4.033241695272641E-002
                    16  7.670834890855859E-002
                    17  0.213716050429236     
                    18  5.184468359849028E-003
                    19  3.309141274579835E-002
                    20 -0.423421480417391     
                    21  1.182484794590812E-003
                    22  7.557175070221749E-003
                    23 -9.669507843344066E-002
                    24 -2.922845178003222E-002
                    25  1.997764550290865E-004
                    26  5.620932069454512E-003
                    27 -2.119268345011644E-002
                    28 -2.141629755066368E-003
                    29  0.104484077990213     
                    30  3.174867519206358E-002
                    31  0.104487945251770     
                    32  3.174999289995367E-002
                    33  0.153229980222008     
                    34  6.840449783656828E-002
                    35  0.153229554220425     
                    36  6.840484979044324E-002
 Sym= __7_A__
 Ene=   7.00000000000000     
 Spin= Alpha
 Occup=    1.00000000000000     
                     1  4.178313141867174E-007
                     2 -9.359767219240727E-007
                     3 -3.502896477901902E-006
                     4 -8.216738122205212E-003
                     5  0.165524049350082     
                     6  1.283813575467697E-002
                     7 -8.394298547205560E-003
                     8  0.169213526615057     
                     9  1.312503720808200E-002
                    10  3.755689225607490E-003
                    11 -1.410803823381964E-003
                    12  2.778565346805109E-002
                    13  2.201991963825680E-003
                    14 -2.317339095735136E-004
                    15 -1.945534618188737E-007
                    16  3.413726669045581E-007
                    17  2.301185159958684E-006
                    18  2.264310538130611E-002
                    19 -0.457289485339962     
                    20 -3.546294211473541E-002
                    21  1.380986592687141E-002
                    22 -0.278858106532380     
                    23 -2.162360620249577E-002
                    24  4.985215659982270E-003
                    25 -1.874609978217434E-003
                    26  3.689413172958354E-002
                    27  2.923026727126334E-003
                    28 -3.095142786956214E-004
                    29  9.823572007015205E-002
                    30  4.550509855026614E-002
                    31 -9.823684949383828E-002
                    32 -4.550608109698651E-002
                    33 -0.241766273767910     
                    34 -9.679653090548673E-002
                    35  0.241768644095918     
                    36  9.679859415997694E-002
 Sym= __8_A__
 Ene=   8.00000000000000     
 Spin= Alpha
 Occup=    1.00000000000000     
                     1  5.959877511578027E-006
                     2 -1.568971322323002E-005
                     3 -1.996503779689611E-005
                     4  0.575756757487473     
                     5  2.782408796336228E-002
                     6  9.199061965769910E-003
                     7  0.451953706772229     
                     8  2.184216660064631E-002
                     9  7.223261498153492E-003
                    10 -5.117317687226256E-004
                    11 -1.842324767355387E-002
                    12 -8.660565483796982E-004
                    13  1.580786261363912E-004
                    14  1.451048231223890E-003
                    15 -1.873135993454017E-006
                    16  4.407259808215034E-006
                    17 -1.473419435551846E-006
                    18  0.201100907800648     
                    19  9.699185314505407E-003
                    20  3.232182384293167E-003
                    21  6.240653736058365E-002
                    22  3.004882515226450E-003
                    23  1.001816661124541E-003
                    24  9.503643963733612E-004
                    25  3.421335589826808E-002
                    26  1.611407147196102E-003
                    27 -2.894934775817920E-004
                    28 -2.695010193719879E-003
                    29  7.724743237439307E-006
                    30  2.745882685658423E-006
                    31 -4.914991918062233E-007
                    32 -6.067175406709420E-007
                    33 -1.000653340565827E-005
                    34 -5.233927780328398E-006
                    35  4.366494222161927E-006
                    36  2.812010359095346E-006
 Sym= __9_A__
 Ene=   9.00000000000000     
 Spin= Alpha
 Occup=    1.00000000000000     
                     1 -2.635658973526879E-006
                     2  6.447004136891933E-006
                     3  1.832846568360443E-005
                     4 -0.264958461653046     
                     5 -1.279912402511227E-002
                     6 -4.235238550755182E-003
                     7 -0.412325645460935     
                     8 -1.991756089599135E-002
                     9 -6.595307625717473E-003
                    10 -5.820062520263070E-004
                    11 -2.099423992275017E-002
                    12 -9.867294203014048E-004
                    13  1.770265256067823E-004
                    14  1.653612197089813E-003
                    15 -1.251166126939982E-006
                    16  6.255870053971560E-007
                    17  1.298179572451689E-005
                    18  0.593798748809420     
                    19  2.867240987237039E-002
                    20  9.499501159633677E-003
                    21  0.606347988914241     
                    22  2.927614447250743E-002
                    23  9.704075973849811E-003
                    24 -5.863253747574901E-004
                    25 -2.113084272043331E-002
                    26 -9.948598881924660E-004
                    27  1.790827400270137E-004
                    28  1.664231525702857E-003
                    29 -3.846005369083741E-006
                    30 -3.057377035704849E-006
                    31 -9.794354550406078E-006
                    32 -1.056771093191932E-005
                    33 -1.583729186245677E-006
                    34  7.834340534475459E-007
                    35 -4.504418132958639E-006
                    36 -8.197690566216489E-006
 Sym= _10_A__
 Ene=   10.0000000000000     
 Spin= Alpha
 Occup=    1.00000000000000     
                     1 -9.943076561746235E-002
                     2  0.146980260610432     
                     3   1.60419143039977     
                     4 -1.604226201604134E-003
                     5 -1.037316755963085E-002
                     6  0.132609195820211     
                     7 -4.299267288421685E-003
                     8 -2.784748719824939E-002
                     9  0.356028692933791     
                    10  7.194965742412619E-003
                    11 -8.562901279358114E-005
                    12 -1.235887860925422E-003
                    13  3.319101491901930E-003
                    14  3.409822868094978E-004
                    15 -3.154993262327721E-002
                    16  6.822752277110021E-002
                    17  0.567076667834843     
                    18  1.633434422706302E-003
                    19  1.043601877182788E-002
                    20 -0.133647569516598     
                    21  7.113637529991165E-003
                    22  4.556056055583519E-002
                    23 -0.583313634254696     
                    24  9.395759890502868E-003
                    25 -4.221377622127214E-005
                    26 -1.886614563544851E-003
                    27  7.831839344327124E-003
                    28  7.885909816125474E-004
                    29 -7.171935650106603E-002
                    30  -1.00132841117441     
                    31 -7.172500924590507E-002
                    32  -1.00138396620135     
                    33 -1.465162046325442E-002
                    34 -0.564234602985468     
                    35 -1.465579975150248E-002
                    36 -0.564293013830275     
 Sym= _11_A__
 Ene=   11.0000000000000     
 Spin= Alpha
 Occup=    1.00000000000000     
                     1  5.572345103071629E-006
                     2 -8.648594112360426E-006
                     3 -8.665509998572252E-005
                     4  1.281305339047642E-002
                     5 -0.258527723215971     
                     6 -2.005835809559473E-002
                     7  3.358645062760511E-002
                     8 -0.677619379702729     
                     9 -5.257259950839765E-002
                    10  4.575449588998401E-003
                    11 -1.719495117009182E-003
                    12  3.385020290406768E-002
                    13  2.682774132103102E-003
                    14 -2.847886179632641E-004
                    15 -3.808362812134900E-006
                    16  5.479924144250962E-006
                    17  4.769823998732246E-005
                    18  1.194954519095964E-002
                    19 -0.241294821279734     
                    20 -1.870963905765941E-002
                    21  3.242430771523206E-002
                    22 -0.654858557973023     
                    23 -5.077540088172227E-002
                    24 -4.075962533158827E-003
                    25  1.532273332377234E-003
                    26 -3.015936483792775E-002
                    27 -2.390129885928606E-003
                    28  2.545519839857033E-004
                    29  9.247299360466134E-002
                    30   1.07497556210487     
                    31 -9.246510624314280E-002
                    32  -1.07487265556119     
                    33  5.982765260356714E-002
                    34  0.883053521568402     
                    35 -5.983138042555644E-002
                    36 -0.883105816804719     
 Sym= _12_A__
 Ene=   12.0000000000000     
 Spin= Alpha
 Occup=    1.00000000000000     
                     1 -6.214759131138013E-002
                     2  9.982862422352604E-002
                     3  0.903323669890356     
                     4 -1.947234954998798E-004
                     5 -1.310081575338768E-003
                     6  1.666663413584796E-002
                     7  6.876008861855575E-004
                     8  4.255792053904376E-003
                     9 -5.465221299984063E-002
                    10 -6.473584620414602E-003
                    11 -3.048841705971074E-005
                    12  1.533935760637359E-003
                    13 -8.402773609664722E-003
                    14 -8.378454116696867E-004
                    15  0.124577840362057     
                    16 -0.184754604704272     
                    17  -2.04328232753378     
                    18 -1.443954199052388E-003
                    19 -9.271787116426797E-003
                    20  0.118490497943362     
                    21 -4.489082608345909E-003
                    22 -2.880355923836717E-002
                    23  0.368084798778523     
                    24  3.773660777734651E-003
                    25 -1.693751044639540E-004
                    26 -1.630990496889795E-004
                    27 -4.547038586130960E-003
                    28 -4.374894088024542E-004
                    29 -3.674124742412322E-002
                    30 -0.499375509779029     
                    31 -3.674716846457501E-002
                    32 -0.499441446003061     
                    33  7.086759317796835E-002
                    34   1.31584854614809     
                    35  7.086273342353441E-002
                    36   1.31575439830893     
 Sym= _13_A__
 Ene=   13.0000000000000     
 Spin= Alpha
 Occup=    1.00000000000000     
                     1 -7.673070015675919E-007
                     2 -4.335177885146479E-007
                     3  2.912099740349466E-005
                     4  1.179723506463991E-002
                     5 -0.238098309418963     
                     6 -1.846355856441010E-002
                     7  5.459833106402241E-002
                     8  -1.10202114384632     
                     9 -8.547724072827050E-002
                    10 -2.961860251792734E-003
                    11  1.112901290092871E-003
                    12 -2.191714193658439E-002
                    13 -1.737197638938972E-003
                    14  1.837480394653872E-004
                    15  5.892503798199863E-007
                    16  3.990684388489997E-008
                    17 -3.051585871149318E-005
                    18 -1.461810693900077E-002
                    19  0.295193436339202     
                    20  2.289455515863244E-002
                    21 -8.141785216211050E-002
                    22   1.64377887910445     
                    23  0.127466894959119     
                    24  1.962995175814341E-004
                    25 -7.355569351525442E-005
                    26  1.455729163173999E-003
                    27  1.152277980975301E-004
                    28 -1.082560106639415E-005
                    29 -9.308116642377365E-003
                    30   1.08490228946231     
                    31  9.306089995248424E-003
                    32  -1.08492581254337     
                    33 -1.858781001693482E-002
                    34  -1.62596315393234     
                    35  1.858974320937920E-002
                    36   1.62599305821696     
 Sym= _14_A__
 Ene=   14.0000000000000     
 Spin= Alpha
 Occup=    1.00000000000000     
                     1 -5.271548235887939E-002
                     2  3.217717825536966E-002
                     3   2.03067271837031     
                     4  3.719424051019796E-003
                     5  2.382690874591508E-002
                     6 -0.304811078021418     
                     7  2.201342015482085E-002
                     8  0.140729964124430     
                     9  -1.80054781328315     
                    10  2.119587201916392E-002
                    11 -7.136197873823364E-004
                    12 -1.852347484815459E-003
                    13 -1.336845909111532E-002
                    14 -1.265739081843032E-003
                    15  6.119199077763399E-002
                    16  3.617680363769068E-002
                    17  -2.34887529533084     
                    18  8.493399571055269E-004
                    19  5.462988100926354E-003
                    20 -6.986802400866433E-002
                    21  3.138479326221216E-002
                    22  0.200368730571458     
                    23  -2.56341921540725     
                    24  2.912875183690128E-002
                    25 -2.802797664318441E-004
                    26 -5.284718391487231E-003
                    27  1.701929843025605E-002
                    28  1.731835287935984E-003
                    29  4.075217358604429E-002
                    30  0.682473560743385     
                    31  4.075391996645990E-002
                    32  0.682464397270953     
                    33 -5.180311031607419E-002
                    34 -0.277733073687173     
                    35 -5.180868801762196E-002
                    36 -0.277687236701347     
 Sym= _15_A__
 Ene=   15.0000000000000     
 Spin= Alpha
 Occup=    1.00000000000000     
                     1 -1.723199661293384E-005
                     2  2.234045550966166E-005
                     3  1.020958362862525E-004
                     4 -0.215483749400395     
                     5 -1.041768344448289E-002
                     6 -3.406696798697574E-003
                     7 -3.353133071740227E-003
                     8 -1.216185574279405E-004
                     9 -5.132051405538567E-004
                    10  2.196371751294258E-003
                    11  8.092341589080183E-002
                    12  3.813409733032870E-003
                    13 -6.966144194278505E-004
                    14 -6.375257859822441E-003
                    15  8.446190952227495E-006
                    16 -1.524239257551775E-004
                    17 -2.446783463363535E-004
                    18 -0.993770428011440     
                    19 -4.797173517580387E-002
                    20 -1.619369551284859E-002
                    21   1.12969621618689     
                    22  5.456061550094087E-002
                    23  1.819815562846183E-002
                    24 -1.240120960143932E-003
                    25 -4.469769160547802E-002
                    26 -2.100866187069097E-003
                    27  3.710678234279836E-004
                    28  3.519965108712466E-003
                    29  2.946654096713923E-005
                    30  6.281293824158126E-005
                    31  4.140246514368668E-005
                    32  4.487130591936967E-005
                    33  2.029144966589294E-005
                    34 -2.483242795146136E-006
                    35  3.303048453711568E-005
                    36  7.973386030295737E-006
 Sym= _16_A__
 Ene=   16.0000000000000     
 Spin= Alpha
 Occup=    1.00000000000000     
                     1 -5.103199237668762E-002
                     2  4.727053182467629E-002
                     3  0.315391151486756     
                     4 -9.958060426005645E-004
                     5 -6.788851210366996E-003
                     6  8.663793074353134E-002
                     7  1.743029227808520E-002
                     8  0.111407394971183     
                     9  -1.42497859017383     
                    10 -0.158843309971646     
                    11  2.620686029997736E-003
                    12  2.439988219241140E-002
                    13 -3.601737037813138E-002
                    14 -3.875560747459689E-003
                    15  2.655405819218960E-002
                    16 -0.461756308939031     
                    17 -0.755384695221080     
                    18  1.121442218188738E-002
                    19  6.939608298043932E-002
                    20 -0.889270136411009     