[Molden Format]
[Atoms] AU
  N     1    7     0.0972132200   -0.2376293800    1.1274469600        
  C     2    6     0.1268252400   -0.0485622000   -1.2915243900        
  H     3    1     0.0040988200    1.3143352800    2.2662795200        
  H     4    1     0.1657498300   -1.9478586600    2.0132356500        
  H     5    1     0.0512493900    1.8042583100   -2.1606211200        
  H     6    1     0.2269902100   -1.7440440500   -2.4357691300        
[5D]
[7F]
[GTO]
  1  0
   s     6 1.00
  0.417351D+04  0.183480D-02
  0.627458D+03  0.139950D-01
  0.142902D+03  0.685870D-01
  0.402343D+02  0.232241D+00
  0.128202D+02  0.469070D+00
  0.439044D+01  0.360455D+00
   s     3 1.00
  0.116264D+02 -0.114961D+00
  0.271628D+01 -0.169118D+00
  0.772218D+00  0.114585D+01
   s     1 1.00
  0.212031D+00  0.100000D+01
   p     3 1.00
  0.116264D+02  0.675800D-01
  0.271628D+01  0.323907D+00
  0.772218D+00  0.740895D+00
   p     1 1.00
  0.212031D+00  0.100000D+01
   d     1 1.00
  0.800000D+00  0.100000D+01
  
  2  0
   s     6 1.00
  0.304752D+04  0.183470D-02
  0.457370D+03  0.140373D-01
  0.103949D+03  0.688426D-01
  0.292102D+02  0.232184D+00
  0.928666D+01  0.467941D+00
  0.316393D+01  0.362312D+00
   s     3 1.00
  0.786827D+01 -0.119332D+00
  0.188129D+01 -0.160854D+00
  0.544249D+00  0.114346D+01
   s     1 1.00
  0.168714D+00  0.100000D+01
   p     3 1.00
  0.786827D+01  0.689991D-01
  0.188129D+01  0.316424D+00
  0.544249D+00  0.744308D+00
   p     1 1.00
  0.168714D+00  0.100000D+01
   d     1 1.00
  0.800000D+00  0.100000D+01
  
  3  0
   s     3 1.00
  0.187311D+02  0.334946D-01
  0.282539D+01  0.234727D+00
  0.640122D+00  0.813757D+00
   s     1 1.00
  0.161278D+00  0.100000D+01
  
  4  0
   s     3 1.00
  0.187311D+02  0.334946D-01
  0.282539D+01  0.234727D+00
  0.640122D+00  0.813757D+00
   s     1 1.00
  0.161278D+00  0.100000D+01
  
  5  0
   s     3 1.00
  0.187311D+02  0.334946D-01
  0.282539D+01  0.234727D+00
  0.640122D+00  0.813757D+00
   s     1 1.00
  0.161278D+00  0.100000D+01
  
  6  0
   s     3 1.00
  0.187311D+02  0.334946D-01
  0.282539D+01  0.234727D+00
  0.640122D+00  0.813757D+00
   s     1 1.00
  0.161278D+00  0.100000D+01
  
[MO]
 Sym= __1_A__
 Ene=   1.00000000000000     
 Spin= Alpha
 Occup=    1.00000000000000     
                     1  0.995953143125570     
                     2  2.394583833551326E-002
                     3 -1.248135210660568E-002
                     4  1.051860386084844E-005
                     5  6.634910933753623E-005
                     6 -8.489931222287437E-004
                     7 -1.868243342532547E-005
                     8 -1.182089567464498E-004
                     9  1.513125372996961E-003
                    10  3.339032826020040E-004
                    11 -7.583678764166813E-006
                    12 -4.341346773676902E-005
                    13 -2.653904129788522E-005
                    14 -1.879962436644806E-006
                    15  9.641823970086976E-005
                    16 -6.758930535034306E-004
                    17  4.730481000829611E-003
                    18  6.236711649008659E-006
                    19  3.974468062114633E-005
                    20 -5.084371260648487E-004
                    21 -2.761917119977675E-005
                    22 -1.765780689874230E-004
                    23  2.258563683942570E-003
                    24 -6.966839483747862E-004
                    25  1.391297512506302E-005
                    26  9.818573778108446E-005
                    27 -4.251527519368672E-005
                    28 -5.679422925402403E-006
                    29 -1.556922199299384E-005
                    30  1.777588444242177E-003
                    31 -1.553188076428945E-005
                    32  1.777623107533556E-003
                    33 -2.205388491492863E-004
                    34 -1.248110985011872E-004
                    35 -2.205519578453392E-004
                    36 -1.248719928271941E-004
 Sym= __2_A__
 Ene=   2.00000000000000     
 Spin= Alpha
 Occup=    1.00000000000000     
                     1 -3.281137641918983E-004
                     2 -1.463854027888773E-004
                     3 -1.870636000298776E-004
                     4 -5.408463792353036E-006
                     5 -3.463533892107099E-005
                     6  4.430875619737085E-004
                     7 -1.088985969661899E-005
                     8 -6.941137592791548E-005
                     9  8.889096557478681E-004
                    10 -6.950148758469338E-004
                    11  1.687311182015818E-005
                    12  8.623130117560443E-005
                    13  1.089376524416938E-004
                    14  9.174437072575019E-006
                    15  0.996084531609135     
                    16  2.405894154925320E-002
                    17 -9.579136020752894E-003
                    18 -1.701536632172440E-005
                    19 -1.086063098714021E-004
                    20  1.389415861178866E-003
                    21 -1.141489017365362E-005
                    22 -7.321199229582163E-005
                    23  9.364522818490805E-004
                    24  8.806672135578887E-004
                    25 -2.630121051000041E-005
                    26 -9.002022144738840E-005
                    27 -3.867572086130054E-004
                    28 -3.601539660461713E-005
                    29 -4.103247035052080E-006
                    30  6.285589939166955E-005
                    31 -4.070265353370569E-006
                    32  6.291293950581914E-005
                    33 -4.052209195416548E-004
                    34  2.577042984067044E-003
                    35 -4.052226757322433E-004
                    36  2.577014540179953E-003
 Sym= __3_A__
 Ene=   3.00000000000000     
 Spin= Alpha
 Occup=    1.00000000000000     
                     1 -0.191716455733214     
                     2  0.403264885847759     
                     3  0.407752956510212     
                     4  1.005935087417448E-003
                     5  6.381491670221727E-003
                     6 -8.165937998053591E-002
                     7  3.422332053772862E-004
                     8  2.157676211410685E-003
                     9 -2.761681491699177E-002
                    10  1.182570797397792E-002
                    11 -5.849364240724355E-004
                    12 -3.009643252787087E-004
                    13 -1.691454665104625E-002
                    14 -1.633803615503061E-003
                    15 -0.110055819151489     
                    16  0.223755222944608     
                    17  6.682812218394953E-002
                    18 -1.835044584824282E-003
                    19 -1.172362593293451E-002
                    20  0.149989558288180     
                    21  1.939835488580015E-004
                    22  1.236454455034451E-003
                    23 -1.581972881509396E-002
                    24  2.423293832650777E-002
                    25 -6.412681455178547E-004
                    26 -2.798289471134269E-003
                    27 -6.488917278609166E-003
                    28 -5.837598347615187E-004
                    29  9.454654287274773E-002
                    30 -1.127359714355044E-002
                    31  9.454768585809691E-002
                    32 -1.127397309889364E-002
                    33  3.745020432432854E-002
                    34 -1.265585007667378E-003
                    35  3.745081362623459E-002
                    36 -1.265294614342290E-003
 Sym= __4_A__
 Ene=   4.00000000000000     
 Spin= Alpha
 Occup=    1.00000000000000     
                     1 -7.869516391682073E-002
                     2  0.166936912929896     
                     3  0.264365985166902     
                     4 -3.533521736581516E-003
                     5 -2.264098663600598E-002
                     6  0.289696002663189     
                     7 -1.540700754259614E-003
                     8 -9.884420709087544E-003
                     9  0.126482106132513     
                    10 -1.255311255209333E-002
                    11 -7.804751396095812E-005
                    12  3.059748400982788E-003
                    13 -1.743014856509543E-002
                    14 -1.737390796277736E-003
                    15  0.161648768998380     
                    16 -0.341658852024801     
                    17 -0.302260993911976     
                    18 -5.200995676585237E-004
                    19 -3.348166747368275E-003
                    20  4.284816793192236E-002
                    21 -3.592533311719888E-004
                    22 -2.297832053800250E-003
                    23  2.939926290443776E-002
                    24 -1.990976296327323E-003
                    25  4.682608791307688E-004
                    26 -1.391263749052638E-003
                    27  2.147971379968814E-002
                    28  2.101918092860143E-003
                    29  0.127393573248758     
                    30  1.119131353541321E-002
                    31  0.127390079307866     
                    32  1.119136966903967E-002
                    33 -0.134295145908094     
                    34 -2.292929027248956E-002
                    35 -0.134294972138832     
                    36 -2.292917923657259E-002
 Sym= __5_A__
 Ene=   5.00000000000000     
 Spin= Alpha
 Occup=    1.00000000000000     
                     1 -3.648382753826680E-007
                     2  1.108147411206667E-006
                     3  8.898278856028758E-007
                     4 -2.373431228444196E-002
                     5  0.478922025875056     
                     6  3.714814102266423E-002
                     7 -1.557116073569535E-002
                     8  0.314195535776791     
                     9  2.437161107757504E-002
                    10  2.677343549356212E-003
                    11 -1.005834179950681E-003
                    12  1.980443242685697E-002
                    13  1.569610542015360E-003
                    14 -1.618582093752756E-004
                    15 -1.985862832308447E-006
                    16  4.614592423252860E-006
                    17  6.898896570965862E-006
                    18 -8.374600048603392E-003
                    19  0.169012927159304     
                    20  1.310154691376343E-002
                    21 -1.021453935588303E-003
                    22  2.060818939944317E-002
                    23  1.596506794782839E-003
                    24  1.689351982980405E-003
                    25 -6.355544676565964E-004
                    26  1.250220603725412E-002
                    27  9.905739952829832E-004
                    28 -1.053215513665249E-004
                    29  0.208055282932600     
                    30  3.654973001001291E-002
                    31 -0.208055362860215     
                    32 -3.655069144848049E-002
                    33  5.689159840629501E-002
                    34  2.272965266107368E-002
                    35 -5.688584968912228E-002
                    36 -2.272851258886586E-002
 Sym= __6_A__
 Ene=   6.00000000000000     
 Spin= Alpha
 Occup=    1.00000000000000     
                     1  1.061791338946978E-002
                     2 -2.598227324319643E-002
                     3 -9.119296982618062E-003
                     4 -4.806956523156445E-003
                     5 -3.082754791248081E-002
                     6  0.394313154199129     
                     7 -2.595722781587487E-003
                     8 -1.666791082965388E-002
                     9  0.213185286181732     
                    10 -1.273132833631391E-002
                    11  2.631619218021182E-005
                    12  2.690547878647405E-003
                    13 -1.235402576529728E-002
                    14 -1.239744449972378E-003
                    15 -4.033241573789513E-002
                    16  7.670834742222249E-002
                    17  0.213716048529476     
                    18  5.184468335096093E-003
                    19  3.309141258399863E-002
                    20 -0.423421478349724     
                    21  1.182484796570492E-003
                    22  7.557175082817745E-003
                    23 -9.669507859411894E-002
                    24 -2.922845405230291E-002
                    25  1.997765127054356E-004
                    26  5.620932339378971E-003
                    27 -2.119268294049106E-002
                    28 -2.141629712206584E-003
                    29  0.104484078048341     
                    30  3.174867628480143E-002
                    31  0.104487945310501     
                    32  3.174999399263759E-002
                    33  0.153229980065102     
                    34  6.840449727639832E-002
                    35  0.153229554063611     
                    36  6.840484923023979E-002
 Sym= __7_A__
 Ene=   7.00000000000000     
 Spin= Alpha
 Occup=    1.00000000000000     
                     1  4.178313397575481E-007
                     2 -9.359767652901083E-007
                     3 -3.502896472275676E-006
                     4 -8.216737995642124E-003
                     5  0.165524046850736     
                     6  1.283813556055368E-002
                     7 -8.394298685162765E-003
                     8  0.169213529446669     
                     9  1.312503742886874E-002
                    10  3.755689095469496E-003
                    11 -1.410803774903128E-003
                    12  2.778565250381672E-002
                    13  2.201991887473402E-003
                    14 -2.317339013965347E-004
                    15 -1.945534633201170E-007
                    16  3.413728262767874E-007
                    17  2.301185672599438E-006
                    18  2.264310538345384E-002
                    19 -0.457289485303666     
                    20 -3.546294211164820E-002
                    21  1.380986594923053E-002
                    22 -0.278858106956846     
                    23 -2.162360623545953E-002
                    24  4.985215387453477E-003
                    25 -1.874609873004082E-003
                    26  3.689412971279232E-002
                    27  2.923026567245922E-003
                    28 -3.095142623682535E-004
                    29  9.823571968846495E-002
                    30  4.550509894183695E-002
                    31 -9.823684911247196E-002
                    32 -4.550608148893995E-002
                    33 -0.241766274853733     
                    34 -9.679653059887967E-002
                    35  0.241768645181809     
                    36  9.679859385352241E-002
 Sym= __8_A__
 Ene=   8.00000000000000     
 Spin= Alpha
 Occup=    1.00000000000000     
                     1  5.959877406816006E-006
                     2 -1.568971349578757E-005
                     3 -1.996503640217770E-005
                     4  0.575756755688567     
                     5  2.782408787553223E-002
                     6  9.199061936378974E-003
                     7  0.451953706104771     
                     8  2.184216656973390E-002
                     9  7.223261488628703E-003
                    10 -5.117318393589022E-004
                    11 -1.842325020373286E-002
                    12 -8.660566683678533E-004
                    13  1.580786482536267E-004
                    14  1.451048430552100E-003
                    15 -1.873135964605637E-006
                    16  4.407259207196513E-006
                    17 -1.473418279659396E-006
                    18  0.201100909576057     
                    19  9.699185401917266E-003
                    20  3.232182412635833E-003
                    21  6.240653832210999E-002
                    22  3.004882555848655E-003
                    23  1.001816676417156E-003
                    24  9.503644689596705E-004
                    25  3.421335852992530E-002
                    26  1.611407268612125E-003
                    27 -2.894934999016280E-004
                    28 -2.695010400980334E-003
                    29  7.724740779067056E-006
                    30  2.745880505728531E-006
                    31 -4.914982113395308E-007
                    32 -6.067169115633722E-007
                    33 -1.000652834027568E-005
                    34 -5.233924627055481E-006
                    35  4.366489141092273E-006
                    36  2.812007106749755E-006
 Sym= __9_A__
 Ene=   9.00000000000000     
 Spin= Alpha
 Occup=    1.00000000000000     
                     1 -2.635659099633432E-006
                     2  6.447004203228344E-006
                     3  1.832846644708194E-005
                     4 -0.264958463049013     
                     5 -1.279912409637888E-002
                     6 -4.235238574039811E-003
                     7 -0.412325647931041     
                     8 -1.991756101887449E-002
                     9 -6.595307665243557E-003
                    10 -5.820062365197484E-004
                    11 -2.099423936104336E-002
                    12 -9.867293958973097E-004
                    13  1.770265203897194E-004
                    14  1.653612152827044E-003
                    15 -1.251166170999736E-006
                    16  6.255870997454664E-007
                    17  1.298179583006080E-005
                    18  0.593798747630479     
                    19  2.867240981645588E-002
                    20  9.499501140548219E-003
                    21  0.606347989989589     
                    22  2.927614453053161E-002
                    23  9.704075991791173E-003
                    24 -5.863253378907236E-004
                    25 -2.113084137188329E-002
                    26 -9.948598274832003E-004
                    27  1.790827287115275E-004
                    28  1.664231419634598E-003
                    29 -3.846004873963129E-006
                    30 -3.057377037279682E-006
                    31 -9.794354656627750E-006
                    32 -1.056771205331578E-005
                    33 -1.583731245861613E-006
                    34  7.834316297523400E-007
                    35 -4.504416410871360E-006
                    36 -8.197688104229869E-006
 Sym= _10_A__
 Ene=   10.0000000000000     
 Spin= Alpha
 Occup=    1.00000000000000     
                     1 -9.943076739434646E-002
                     2  0.146980261683013     
                     3   1.60419142526792     
                     4 -1.604226224284658E-003
                     5 -1.037316769904347E-002
                     6  0.132609197611675     
                     7 -4.299267284289347E-003
                     8 -2.784748717206323E-002
                     9  0.356028692620056     
                    10  7.194966059649231E-003
                    11 -8.562901691998220E-005
                    12 -1.235887914469593E-003
                    13  3.319101624323796E-003
                    14  3.409823005787794E-004
                    15 -3.154993328982224E-002
                    16  6.822752386633033E-002
                    17  0.567076673213124     
                    18  1.633434438364464E-003
                    19  1.043601887539280E-002
                    20 -0.133647570836165     
                    21  7.113637509277263E-003
                    22  4.556056042580896E-002
                    23 -0.583313632576823     
                    24  9.395760115807632E-003
                    25 -4.221377933601114E-005
                    26 -1.886614600481129E-003
                    27  7.831839426147052E-003
                    28  7.885909900183817E-004
                    29 -7.171935686179384E-002
                    30  -1.00132840898348     
                    31 -7.172500960619616E-002
                    32  -1.00138396400534     
                    33 -1.465162124449888E-002
                    34 -0.564234605444578     
                    35 -1.465580053253204E-002
                    36 -0.564293016286174     
 Sym= _11_A__
 Ene=   11.0000000000000     
 Spin= Alpha
 Occup=    1.00000000000000     
                     1  5.572345168380825E-006
                     2 -8.648594076562875E-006
                     3 -8.665509854076039E-005
                     4  1.281305338596327E-002
                     5 -0.258527723128587     
                     6 -2.005835808869686E-002
                     7  3.358645049562851E-002
                     8 -0.677619377046536     
                     9 -5.257259930121993E-002
                    10  4.575449544630641E-003
                    11 -1.719495100178203E-003
                    12  3.385020257552856E-002
                    13  2.682774106089720E-003
                    14 -2.847886150289188E-004
                    15 -3.808363061700417E-006
                    16  5.479924695103037E-006
                    17  4.769824531772102E-005
                    18  1.194954524996294E-002
                    19 -0.241294822468614     
                    20 -1.870963915033106E-002
                    21  3.242430790471030E-002
                    22 -0.654858561811344     
                    23 -5.077540118109949E-002
                    24 -4.075962484653260E-003
                    25  1.532273313993039E-003
                    26 -3.015936447918921E-002
                    27 -2.390129857467202E-003
                    28  2.545519811013408E-004
                    29  9.247299351003249E-002
                    30   1.07497555861959     
                    31 -9.246510614859137E-002
                    32  -1.07487265207840     
                    33  5.982765309016977E-002
                    34  0.883053526262503     
                    35 -5.983138091257884E-002
                    36 -0.883105821506230     
 Sym= _12_A__
 Ene=   12.0000000000000     
 Spin= Alpha
 Occup=    1.00000000000000     
                     1 -6.214759301175959E-002
                     2  9.982862471201473E-002
                     3  0.903323676141060     
                     4 -1.947235126606945E-004
                     5 -1.310081682585862E-003
                     6  1.666663550200668E-002
                     7  6.876008897431809E-004
                     8  4.255792072983061E-003
                     9 -5.465221325533028E-002
                    10 -6.473584245585937E-003
                    11 -3.048842367478716E-005
                    12  1.533935704507735E-003
                    13 -8.402773543371928E-003
                    14 -8.378454042563023E-004
                    15  0.124577839509468     
                    16 -0.184754605752578     
                    17  -2.04328232329087     
                    18 -1.443954231358364E-003
                    19 -9.271787326135799E-003
                    20  0.118490500618278     
                    21 -4.489082524452227E-003
                    22 -2.880355870149217E-002
                    23  0.368084791884024     
                    24  3.773660333807528E-003
                    25 -1.693750977043994E-004
                    26 -1.630989789570848E-004
                    27 -4.547038719271800E-003
                    28 -4.374894226267553E-004
                    29 -3.674124768870040E-002
                    30 -0.499375511652159     
                    31 -3.674716872944187E-002
                    32 -0.499441447879500     
                    33  7.086759389932326E-002
                    34   1.31584854189639     
                    35  7.086273414461743E-002
                    36   1.31575439405224     
 Sym= _13_A__
 Ene=   13.0000000000000     
 Spin= Alpha
 Occup=    1.00000000000000     
                     1 -7.673069791710591E-007
                     2 -4.335177589432729E-007
                     3  2.912099676120926E-005
                     4  1.179723514251364E-002
                     5 -0.238098310960373     
                     6 -1.846355868371837E-002
                     7  5.459833124308328E-002
                     8  -1.10202114742505     
                     9 -8.547724100485812E-002
                    10 -2.961860268112743E-003
                    11  1.112901296563786E-003
                    12 -2.191714205735885E-002
                    13 -1.737197648510679E-003
                    14  1.837480405979132E-004
                    15  5.892503791786408E-007
                    16  3.990671995760699E-008
                    17 -3.051585799097339E-005
                    18 -1.461810698840214E-002
                    19  0.295193437320424     
                    20  2.289455523485621E-002
                    21 -8.141785191840537E-002
                    22   1.64377887416448     
                    23  0.127466894577494     
                    24  1.962994152846003E-004
                    25 -7.355565528903728E-005
                    26  1.455728406370742E-003
                    27  1.152277381276402E-004
                    28 -1.082559481569790E-005
                    29 -9.308116354660619E-003
                    30   1.08490229301781     
                    31  9.306089707474310E-003
                    32  -1.08492581610022     
                    33 -1.858780933239972E-002
                    34  -1.62596314974989     
                    35  1.858974252495279E-002
                    36   1.62599305403552     
 Sym= _14_A__
 Ene=   14.0000000000000     
 Spin= Alpha
 Occup=    1.00000000000000     
                     1 -5.271548389752660E-002
                     2  3.217717631886859E-002
                     3   2.03067271933403     
                     4  3.719424037867925E-003
                     5  2.382690866417301E-002
                     6 -0.304811076977906     
                     7  2.201342013137187E-002
                     8  0.140729963968685     
                     9  -1.80054781129943     
                    10  2.119587141756537E-002
                    11 -7.136197752118523E-004
                    12 -1.852347399785996E-003
                    13 -1.336845913119726E-002
                    14 -1.265739086958822E-003
                    15  6.119198992870396E-002
                    16  3.617680072363451E-002
                    17  -2.34887528620120     
                    18  8.493399667896803E-004
                    19  5.462988164149100E-003
                    20 -6.986802481518617E-002
                    21  3.138479327334644E-002
                    22  0.200368730643391     
                    23  -2.56341921631713     
                    24  2.912875230114436E-002
                    25 -2.802797721561367E-004
                    26 -5.284718470176941E-003
                    27  1.701929863002911E-002
                    28  1.731835308539190E-003
                    29  4.075217391672399E-002
                    30  0.682473558842320     
                    31  4.075392029718296E-002
                    32  0.682464395368456     
                    33 -5.180311157632702E-002
                    34 -0.277733075427897     
                    35 -5.180868927789003E-002
                    36 -0.277687238440421     
 Sym= _15_A__
 Ene=   15.0000000000000     
 Spin= Alpha
 Occup=    1.00000000000000     
                     1 -1.723199297053958E-005
                     2  2.234045444132949E-005
                     3  1.020958107115576E-004
                     4 -0.215483747040066     
                     5 -1.041768333163720E-002
                     6 -3.406696767130820E-003
                     7 -3.353135358488622E-003
                     8 -1.216186769697304E-004
                     9 -5.132050754044049E-004
                    10  2.196371752634885E-003
                    11  8.092341550436098E-002
                    12  3.813409712704979E-003
                    13 -6.966144142389636E-004
                    14 -6.375257829179474E-003
                    15  8.446187932234540E-006
                    16 -1.524238776868348E-004
                    17 -2.446783191929655E-004
                    18 -0.993770428840432     
                    19 -4.797173522372784E-002
                    20 -1.619369546097121E-002
                    21   1.12969621755834     
                    22  5.456061557240263E-002
                    23  1.819815563485884E-002
                    24 -1.240120927275551E-003
                    25 -4.469769040510760E-002
                    26 -2.100866129743743E-003
                    27  3.710678137704850E-004
                    28  3.519965014189765E-003
                    29  2.946653387292338E-005
                    30  6.281292341428175E-005
                    31  4.140246196271292E-005
                    32  4.487128910995130E-005
                    33  2.029144653571181E-005
                    34 -2.483234938601337E-006
                    35  3.303048598039003E-005
                    36  7.973393927572019E-006
 Sym= _16_A__
 Ene=   16.0000000000000     
 Spin= Alpha
 Occup=    1.00000000000000     
                     1 -5.103199328099541E-002
                     2  4.727053500132916E-002
                     3  0.315391148236851     
                     4 -9.958060659550332E-004
                     5 -6.788851248313601E-003
                     6  8.663793122388182E-002
                     7  1.743029233764451E-002
                     8  0.111407395345082     
                     9  -1.42497859497961     
                    10 -0.158843309762375     
                    11  2.620686006644872E-003
                    12  2.439988226387739E-002
                    13 -3.601737165952670E-002
                    14 -3.875560873235270E-003
                    15  2.655405510934965E-002
                    16 -0.461756287446259     
                    17 -0.755384740044725     
                    18  1.121442212779005E-002
                    19  6.939608310276441E-002
                    20 -0.889270137994875     