[Molden Format]
[Atoms] AU
  N     1    7     0.0972132200   -0.2376293800    1.1274469600        
  C     2    6     0.1268252400   -0.0485622000   -1.2915243900        
  H     3    1     0.0040988200    1.3143352800    2.2662795200        
  H     4    1     0.1657498300   -1.9478586600    2.0132356500        
  H     5    1     0.0512493900    1.8042583100   -2.1606211200        
  H     6    1     0.2269902100   -1.7440440500   -2.4357691300        
[5D]
[7F]
[GTO]
  1  0
   s     6 1.00
  0.417351D+04  0.183480D-02
  0.627458D+03  0.139950D-01
  0.142902D+03  0.685870D-01
  0.402343D+02  0.232241D+00
  0.128202D+02  0.469070D+00
  0.439044D+01  0.360455D+00
   s     3 1.00
  0.116264D+02 -0.114961D+00
  0.271628D+01 -0.169118D+00
  0.772218D+00  0.114585D+01
   s     1 1.00
  0.212031D+00  0.100000D+01
   p     3 1.00
  0.116264D+02  0.675800D-01
  0.271628D+01  0.323907D+00
  0.772218D+00  0.740895D+00
   p     1 1.00
  0.212031D+00  0.100000D+01
   d     1 1.00
  0.800000D+00  0.100000D+01
  
  2  0
   s     6 1.00
  0.304752D+04  0.183470D-02
  0.457370D+03  0.140373D-01
  0.103949D+03  0.688426D-01
  0.292102D+02  0.232184D+00
  0.928666D+01  0.467941D+00
  0.316393D+01  0.362312D+00
   s     3 1.00
  0.786827D+01 -0.119332D+00
  0.188129D+01 -0.160854D+00
  0.544249D+00  0.114346D+01
   s     1 1.00
  0.168714D+00  0.100000D+01
   p     3 1.00
  0.786827D+01  0.689991D-01
  0.188129D+01  0.316424D+00
  0.544249D+00  0.744308D+00
   p     1 1.00
  0.168714D+00  0.100000D+01
   d     1 1.00
  0.800000D+00  0.100000D+01
  
  3  0
   s     3 1.00
  0.187311D+02  0.334946D-01
  0.282539D+01  0.234727D+00
  0.640122D+00  0.813757D+00
   s     1 1.00
  0.161278D+00  0.100000D+01
  
  4  0
   s     3 1.00
  0.187311D+02  0.334946D-01
  0.282539D+01  0.234727D+00
  0.640122D+00  0.813757D+00
   s     1 1.00
  0.161278D+00  0.100000D+01
  
  5  0
   s     3 1.00
  0.187311D+02  0.334946D-01
  0.282539D+01  0.234727D+00
  0.640122D+00  0.813757D+00
   s     1 1.00
  0.161278D+00  0.100000D+01
  
  6  0
   s     3 1.00
  0.187311D+02  0.334946D-01
  0.282539D+01  0.234727D+00
  0.640122D+00  0.813757D+00
   s     1 1.00
  0.161278D+00  0.100000D+01
  
[MO]
 Sym= __1_A__
 Ene=   1.00000000000000     
 Spin= Alpha
 Occup=    1.00000000000000     
                     1  0.995980176496500     
                     2  2.376017840204000E-002
                     3 -1.240477998835000E-002
                     4  8.623164118736000E-006
                     5  5.436398807217000E-005
                     6 -6.956271844854000E-004
                     7 -1.736888780500000E-005
                     8 -1.099026735557000E-004
                     9  1.406801684342000E-003
                    10  3.382124537450006E-004
                    11 -8.317124664854999E-006
                    12 -4.148896682948000E-005
                    13 -5.898393993526000E-005
                    14 -5.052361863899000E-006
                    15  1.009565332335000E-004
                    16 -6.613237324934000E-004
                    17  4.736508615971000E-003
                    18  5.689297132879000E-006
                    19  3.625152369450000E-005
                    20 -4.637517086513000E-004
                    21 -2.734766493449000E-005
                    22 -1.747889614499000E-004
                    23  2.235693825697000E-003
                    24 -6.632752759074679E-004
                    25  1.399456181230000E-005
                    26  9.056860374187001E-005
                    27 -2.895954399994000E-006
                    28 -1.721185155815000E-006
                    29 -1.070191130525000E-005
                    30  1.787106989935000E-003
                    31 -1.066598828050000E-005
                    32  1.787136676101000E-003
                    33 -2.131186923314000E-004
                    34 -1.468855801685000E-004
                    35 -2.131305755270000E-004
                    36 -1.469444725769000E-004
 Sym= __2_A__
 Ene=   2.00000000000000     
 Spin= Alpha
 Occup=    1.00000000000000     
                     1 -3.724123938017000E-004
                     2 -1.666341871657000E-004
                     3  1.611814283683000E-004
                     4 -4.716534103264000E-006
                     5 -3.010810828463000E-005
                     6  3.851613283954000E-004
                     7 -8.188423769365000E-006
                     8 -5.208881553937000E-005
                     9  6.672335548056000E-004
                    10 -6.246834542057585E-004
                    11  1.653387827873000E-005
                    12  7.216642126943000E-005
                    13  1.668788157172400E-004
                    14  1.501018821096000E-005
                    15  0.996138198485600     
                    16  2.372260772019000E-002
                    17 -9.815539661844000E-003
                    18 -1.439817318329000E-005
                    19 -9.184057625318000E-005
                    20  1.174984422763000E-003
                    21 -1.110708481641000E-005
                    22 -7.124328852025000E-005
                    23  9.112273375819000E-004
                    24  8.640231159098306E-004
                    25 -2.916095327359000E-005
                    26 -7.518239698696000E-005
                    27 -5.491380289782000E-004
                    28 -5.197556102348000E-005
                    29 -7.589688535513000E-006
                    30  6.579478317949000E-005
                    31 -7.558007150778000E-006
                    32  6.584667936414000E-005
                    33 -3.322175096935000E-004
                    34  2.587346697999000E-003
                    35 -3.322164472296000E-004
                    36  2.587314278377000E-003
 Sym= __3_A__
 Ene=   3.00000000000000     
 Spin= Alpha
 Occup=    1.00000000000000     
                     1 -0.191855326425900     
                     2  0.403882089226300     
                     3  0.406472619368500     
                     4  9.378132150895000E-004
                     5  5.951405684703000E-003
                     6 -7.615580778434999E-002
                     7  2.976542449349000E-004
                     8  1.875136496205000E-003
                     9 -2.400061807201000E-002
                    10  1.125307912777663E-002
                    11 -5.381646966547000E-004
                    12 -3.578484576897000E-004
                    13 -1.517245343366800E-002
                    14 -1.464187357450000E-003
                    15 -0.110146486162500     
                    16  0.222525522154800     
                    17  7.419105696658999E-002
                    18 -1.801090696814000E-003
                    19 -1.150522293254000E-002
                    20  0.147193925833800     
                    21  1.649799649590000E-004
                    22  1.054127810906000E-003
                    23 -1.348844318940000E-002
                    24  2.314197481824622E-002
                    25 -5.827851249466000E-004
                    26 -2.787805018567000E-003
                    27 -4.704348885946000E-003
                    28 -4.110884583616000E-004
                    29  9.519496100083000E-002
                    30 -1.262982561132000E-002
                    31  9.519593387529000E-002
                    32 -1.263020664640000E-002
                    33  3.775738874354000E-002
                    34 -2.056633125772000E-003
                    35  3.775808910121000E-002
                    36 -2.056297019099000E-003
 Sym= __4_A__
 Ene=   4.00000000000000     
 Spin= Alpha
 Occup=    1.00000000000000     
                     1 -7.777559658487999E-002
                     2  0.167938303868700     
                     3  0.253377797149400     
                     4 -3.591782585735000E-003
                     5 -2.300909797044000E-002
                     6  0.294405101488300     
                     7 -1.607476978671000E-003
                     8 -1.030849153182000E-002
                     9  0.131906847235800     
                    10 -1.064072786212600E-002
                    11 -1.494917003128000E-004
                    12  2.919922438385000E-003
                    13 -1.898865630689200E-002
                    14 -1.886084916963000E-003
                    15  0.161279886221400     
                    16 -0.343771777477500     
                    17 -0.288794764723900     
                    18 -5.428013873061000E-004
                    19 -3.488394044402000E-003
                    20  4.464804884398000E-002
                    21 -3.775988499704000E-004
                    22 -2.412112004624000E-003
                    23  3.086340473977000E-002
                    24 -2.568702799280947E-003
                    25  4.915681625577000E-004
                    26 -1.355768292756000E-003
                    27  2.203714372900000E-002
                    28  2.155353742013000E-003
                    29  0.128220428192600     
                    30  1.053143412430000E-002
                    31  0.128216934453300     
                    32  1.053156318299000E-002
                    33 -0.133458362527300     
                    34 -2.464702427938000E-002
                    35 -0.133458642906300     
                    36 -2.464725329507000E-002
 Sym= __5_A__
 Ene=   5.00000000000000     
 Spin= Alpha
 Occup=    1.00000000000000     
                     1 -3.570665675238000E-007
                     2  1.063394268557000E-006
                     3  1.270800947562000E-006
                     4 -2.167766597690000E-002
                     5  0.437504131259100     
                     6  3.393502072688000E-002
                     7 -1.323548955993000E-002
                     8  0.267118381879100     
                     9  2.071951955491000E-002
                    10  2.248332587199085E-003
                    11 -8.447615000171000E-004
                    12  1.663064847132000E-002
                    13  1.318120990507600E-003
                    14 -1.359560325483000E-004
                    15 -1.912557845867000E-006
                    16  4.504059111293000E-006
                    17  5.789994613691000E-006
                    18 -1.308527651894000E-002
                    19  0.264158917727800     
                    20  2.048073347401000E-002
                    21 -3.603678164992000E-003
                    22  7.275227082884000E-002
                    23  5.640198025968000E-003
                    24  3.260275883944842E-004
                    25 -1.228770510046000E-004
                    26  2.412660453976000E-003
                    27  1.911369790493800E-004
                    28 -2.060224113164000E-005
                    29  0.184476875329000     
                    30  2.829905817988000E-002
                    31 -0.184477081508300     
                    32 -2.829969604001000E-002
                    33  0.104474229910200     
                    34  4.508808272927000E-002
                    35 -0.104469300046800     
                    36 -4.508729992011000E-002
 Sym= __6_A__
 Ene=   6.00000000000000     
 Spin= Alpha
 Occup=    1.00000000000000     
                     1  1.196214606745000E-002
                     2 -2.821464418622000E-002
                     3 -9.536277901427000E-003
                     4 -4.813987010795000E-003
                     5 -3.083738807723000E-002
                     6  0.394455793027600     
                     7 -2.585125356936000E-003
                     8 -1.657128224604000E-002
                     9  0.211962715609800     
                    10 -1.073082299614059E-002
                    11 -2.844112319652000E-005
                    12  2.466291405639000E-003
                    13 -1.297538555540800E-002
                    14 -1.296308067014000E-003
                    15 -4.087214659578000E-002
                    16  8.161038795727001E-002
                    17  0.210179986575800     
                    18  5.229204444838000E-003
                    19  3.338797482376000E-002
                    20 -0.427235865955700     
                    21  1.208655398451000E-003
                    22  7.723470895864000E-003
                    23 -9.883438085261000E-002
                    24 -2.799936804787840E-002
                    25  1.386351319456000E-004
                    26  5.589736728297000E-003
                    27 -2.295039438522000E-002
                    28 -2.311356144425000E-003
                    29  0.102419659990300     
                    30  3.079327947405000E-002
                    31  0.102421856862100     
                    32  3.079402884989000E-002
                    33  0.151253028029700     
                    34  6.824083098713001E-002
                    35  0.151254066948600     
                    36  6.824191625275999E-002
 Sym= __7_A__
 Ene=   7.00000000000000     
 Spin= Alpha
 Occup=    1.00000000000000     
                     1  2.931065882253000E-007
                     2 -5.960424932096000E-007
                     3 -3.152747901422000E-006
                     4 -1.295665061019000E-002
                     5  0.261147320999900     
                     6  2.025385857069000E-002
                     7 -1.136340060884000E-002
                     8  0.229108344724300     
                     9  1.777012781725000E-002
                    10  4.496609178521621E-003
                    11 -1.688983271576000E-003
                    12  3.326639998015000E-002
                    13  2.636406850316000E-003
                    14 -2.770966004410000E-004
                    15 -2.918619434109000E-007
                    16  6.204475607575000E-007
                    17  2.707702912747000E-006
                    18  2.055808045098000E-002
                    19 -0.415250835623800     
                    20 -3.220232217520000E-002
                    21  1.341019397477000E-002
                    22 -0.270826019239400     
                    23 -2.100083703900000E-002
                    24  5.521323319606895E-003
                    25 -2.076420813144000E-003
                    26  4.086044357021000E-002
                    27  3.237470609896000E-003
                    28 -3.429604354936000E-004
                    29  0.139130443589800     
                    30  5.328188909286000E-002
                    31 -0.139132159081000     
                    32 -5.328319489238000E-002
                    33 -0.218870458752700     
                    34 -9.241617592284999E-002
                    35  0.218872171210700     
                    36  9.241770134799999E-002
 Sym= __8_A__
 Ene=   8.00000000000000     
 Spin= Alpha
 Occup=    1.00000000000000     
                     1  5.161390131771000E-006
                     2 -1.379318368999000E-005
                     3 -1.633200063880000E-005
                     4  0.519220422667300     
                     5  2.509278545908000E-002
                     6  8.299406955447000E-003
                     7  0.390351915395900     
                     8  1.886596145922000E-002
                     9  6.241078567988000E-003
                    10 -6.666768669509026E-004
                    11 -2.400769010319000E-002
                    12 -1.128438164392000E-003
                    13  2.050222597922000E-004
                    14  1.890929547413000E-003
                    15 -2.311474600729000E-006
                    16  5.239451946123000E-006
                    17  2.406384892052000E-006
                    18  0.290611187789200     
                    19  1.401936001254000E-002
                    20  4.660900892908000E-003
                    21  0.153607031552900     
                    22  7.407451305396000E-003
                    23  2.461325452206000E-003
                    24  1.017539860858796E-003
                    25  3.664591635951000E-002
                    26  1.726028007369000E-003
                    27 -3.101025630282000E-004
                    28 -2.886582691951000E-003
                    29  8.348700025024000E-006
                    30  2.609343168010000E-006
                    31 -1.471672791409000E-006
                    32 -2.842662221897000E-006
                    33 -9.722955600800000E-006
                    34 -5.043540070469000E-006
                    35  6.082912007316000E-006
                    36  3.253168741463000E-006
 Sym= __9_A__
 Ene=   9.00000000000000     
 Spin= Alpha
 Occup=    1.00000000000000     
                     1 -4.488012401531000E-006
                     2  9.536808337649000E-006
                     3  3.481665209367000E-005
                     4 -0.334563671058800     
                     5 -1.616371488114000E-002
                     6 -5.343814730476000E-003
                     7 -0.522873531441000     
                     8 -2.526076850614000E-002
                     9 -8.351712893732001E-003
                    10 -7.854868166514207E-004
                    11 -2.834228829491000E-002
                    12 -1.333009110716000E-003
                    13  2.394404472598000E-004
                    14  2.232471086161000E-003
                    15 -1.206834254196000E-006
                    16 -4.851496413922000E-007
                    17  2.592359186050000E-005
                    18  0.452533061868300     
                    19  2.185180952561000E-002
                    20  7.238524534869000E-003
                    21  0.709107327112900     
                    22  3.423825903467000E-002
                    23  1.134960157660000E-002
                    24 -5.631818613469913E-004
                    25 -2.029494786822000E-002
                    26 -9.555099123389000E-004
                    27  1.721118020070200E-004
                    28  1.598504043170000E-003
                    29 -6.987068273527000E-006
                    30 -1.463681849739000E-005
                    31 -1.244803082207000E-005
                    32 -2.686079123932000E-005
                    33 -9.749201047801000E-007
                    34 -8.255201748308000E-007
                    35 -5.034618710635000E-006
                    36 -1.314474247573000E-005
 Sym= _10_A__
 Ene=   10.0000000000000     
 Spin= Alpha
 Occup=    1.00000000000000     
                     1 -0.101110414348100     
                     2  0.151467632183600     
                     3   1.61902430587500     
                     4 -1.667313423310000E-003
                     5 -1.079756418758000E-002
                     6  0.138060182922600     
                     7 -4.297074818699000E-003
                     8 -2.787027461156000E-002
                     9  0.356374904402200     
                    10  7.728084391717076E-003
                    11 -1.006902598219000E-004
                    12 -1.292847273807000E-003
                    13  3.114247655794000E-003
                    14  3.220241954713000E-004
                    15 -2.728883483346000E-002
                    16  6.011507864968000E-002
                    17  0.499464499322400     
                    18  1.590216514914000E-003
                    19  1.018826170745000E-002
                    20 -0.130462343526900     
                    21  6.686741666660000E-003
                    22  4.288808299784000E-002
                    23 -0.549077514248000     
                    24  9.653092045497122E-003
                    25 -3.710344966680000E-005
                    26 -1.961826223044000E-003
                    27  8.353107727132001E-003
                    28  8.402549491430000E-004
                    29 -7.369288083444001E-002
                    30  -1.02140794721300     
                    31 -7.369749547151000E-002
                    32  -1.02145148734600     
                    33 -1.350993827908000E-002
                    34 -0.510449650987500     
                    35 -1.351345503294000E-002
                    36 -0.510498543280600     
 Sym= _11_A__
 Ene=   11.0000000000000     
 Spin= Alpha
 Occup=    1.00000000000000     
                     1  4.665505123132000E-006
                     2 -7.391699841158000E-006
                     3 -7.166536980631000E-005
                     4  1.315222106760000E-002
                     5 -0.265364088849700     
                     6 -2.058797719748000E-002
                     7  3.452600233213000E-002
                     8 -0.696568291065800     
                     9 -5.404036029520000E-002
                    10  4.318564593714753E-003
                    11 -1.622873940516000E-003
                    12  3.194959767558000E-002
                    13  2.532183194586000E-003
                    14 -2.687277940434000E-004
                    15 -3.643343751548000E-006
                    16  5.537436647485000E-006
                    17  4.490154238465000E-005
                    18  1.173462964732000E-002
                    19 -0.236966862921700     
                    20 -1.837471032499000E-002
                    21  3.067638802880000E-002
                    22 -0.619591570596200     
                    23 -4.804459992838000E-002
                    24 -3.970149719648189E-003
                    25  1.492600142509000E-003
                    26 -2.937757307057000E-002
                    27 -2.328040754996000E-003
                    28  2.480460861872000E-004
                    29  9.161424475909000E-002
                    30   1.09414463026700     
                    31 -9.160759792882001E-002
                    32  -1.09405836888200     
                    33  5.787722951925000E-002
                    34  0.852437449928100     
                    35 -5.788054910867000E-002
                    36 -0.852490510071700     
 Sym= _12_A__
 Ene=   12.0000000000000     
 Spin= Alpha
 Occup=    1.00000000000000     
                     1 -5.803823072329000E-002
                     2  9.484651914114001E-002
                     3  0.839052763052700     
                     4 -1.954513592493000E-004
                     5 -1.310636787988000E-003
                     6  1.668691742545000E-002
                     7  8.687607367795000E-004
                     8  5.428484731252000E-003
                     9 -6.961408836325000E-002
                    10 -5.618159968898623E-003
                    11 -6.507106194738999E-005
                    12  1.481862409539000E-003
                    13 -9.236939064576000E-003
                    14 -9.178147801261000E-004
                    15  0.124735242342600     
                    16 -0.189141429110700     
                    17  -2.05342095360400     
                    18 -1.566810223031000E-003
                    19 -1.005311466486000E-002
                    20  0.128492662703700     
                    21 -4.685687143373000E-003
                    22 -3.005775887013000E-002
                    23  0.384153909599100     
                    24  1.432953342711398E-003
                    25 -1.691130043019000E-004
                    26  3.482626783172000E-004
                    27 -7.032684271752000E-003
                    28 -6.863484828023000E-004
                    29 -3.251980543279000E-002
                    30 -0.460729727314700     
                    31 -3.252502152066000E-002
                    32 -0.460786813977100     
                    33  6.888442859740000E-002
                    34   1.33402653051100     
                    35  6.888013876795000E-002
                    36   1.33393645634100     
 Sym= _13_A__
 Ene=   13.0000000000000     
 Spin= Alpha
 Occup=    1.00000000000000     
                     1 -8.272155974484000E-007
                     2 -2.582452311858000E-007
                     3  2.906370865808000E-005
                     4  1.162268216508000E-002
                     5 -0.234575180170700     
                     6 -1.818990195964000E-002
                     7  5.353463943241000E-002
                     8  -1.08055707402300     
                     9 -8.381130244908000E-002
                    10 -3.213317858516615E-003
                    11  1.207451017979000E-003
                    12 -2.377779453913000E-002
                    13 -1.884660040176400E-003
                    14  1.995529133011000E-004
                    15  7.105539536451000E-007
                    16 -2.423184605528000E-007
                    17 -3.150267246631000E-005
                    18 -1.521277364727000E-002
                    19  0.307196844895100     
                    20  2.382561197173000E-002
                    21 -8.087609279086000E-002
                    22   1.63284056140400     
                    23  0.126620820283900     
                    24  2.569225142809812E-004
                    25 -9.640036908744000E-005
                    26  1.904860659618000E-003
                    27  1.507216965873400E-004
                    28 -1.453513665242000E-005
                    29 -1.028733398601000E-002
                    30   1.06235317421200     
                    31  1.028509218539000E-002
                    32  -1.06237921252200     
                    33 -1.959769767026000E-002
                    34  -1.63038586873400     
                    35  1.959987733614000E-002
                    36   1.63041950279000     
 Sym= _14_A__
 Ene=   14.0000000000000     
 Spin= Alpha
 Occup=    1.00000000000000     
                     1 -5.385690236376000E-002
                     2  3.578086028740000E-002
                     3   2.03998386253900     
                     4  3.697301690535000E-003
                     5  2.369150660850000E-002
                     6 -0.303081105243600     
                     7  2.197625240901000E-002
                     8  0.140496476608000     
                     9  -1.79756876747900     
                    10  2.030529046204635E-002
                    11 -7.311440226814000E-004
                    12 -1.588628912346000E-003
                    13 -1.520860075859600E-002
                    14 -1.448186478948000E-003
                    15  6.088186942470000E-002
                    16  3.471287428117000E-002
                    17  -2.34129712702300     
                    18  8.460118031564000E-004
                    19  5.441844644368000E-003
                    20 -6.959264464831000E-002
                    21  3.140688258812000E-002
                    22  0.200489606935500     
                    23  -2.56494973404300     
                    24  2.948645472325329E-002
                    25 -2.998510215726000E-004
                    26 -5.287150198481000E-003
                    27  1.642113362697000E-002
                    28  1.673965218283000E-003
                    29  4.417564540955000E-002
                    30  0.671584232701700     
                    31  4.417754489045000E-002
                    32  0.671574038212500     
                    33 -5.475058334666000E-002
                    34 -0.279440204603300     
                    35 -5.475586683027000E-002
                    36 -0.279392339444700     
 Sym= _15_A__
 Ene=   15.0000000000000     
 Spin= Alpha
 Occup=    1.00000000000000     
                     1 -3.973977597902000E-005
                     2  4.734707195483000E-005
                     3  2.292298974229000E-004
                     4 -0.214076963680100     
                     5 -1.035292249444000E-002
                     6 -3.340020763460000E-003
                     7  7.579207126124000E-002
                     8  3.752186881176000E-003
                     9  9.960074670457000E-005
                    10  2.353821833990787E-003
                    11  8.920689277511000E-002
                    12  4.214507515144000E-003
                    13 -7.831175155906000E-004
                    14 -7.029404916962000E-003
                    15  2.046549865767000E-005
                    16 -3.544806663251000E-004
                    17 -6.096285625847000E-004
                    18  -1.02685392653500     
                    19 -4.953692278978000E-002
                    20 -1.712827340883000E-002
                    21   1.05431818302200     
                    22  5.090756115565000E-002
                    23  1.713018911196000E-002
                    24 -1.307148399107320E-003
                    25 -4.728384566713000E-002
                    26 -2.223040091327000E-003
                    27  3.859295027190000E-004
                    28  3.722938294445000E-003
                    29  8.306484707593001E-005
                    30  1.652547866216000E-004
                    31  9.363897344498001E-005
                    32  1.485429013485000E-004
                    33  4.748507485578000E-005
                    34  2.960311647072000E-006
                    35  5.800733133652000E-005
                    36  1.446440716157000E-005
 Sym= _16_A__
 Ene=   16.0000000000000     
 Spin= Alpha
 Occup=    1.00000000000000     
                     1  5.045923349996000E-002
                     2 -5.096033688811000E-002
                     3 -0.301752743478300     
                     4  9.698898992706000E-004
                     5  7.229806970408000E-003
                     6 -9.242491079360000E-002
                     7 -1.744120740411000E-002
                     8 -0.111868145388300     
                     9   1.43100085954200     
                    10  0.158807761011654     
                    11 -2.578119061652000E-003
                    12 -2.439206448832000E-002
                    13  3.591324191706000E-002
                    14  3.862053307228000E-003
                    15 -2.654132823460000E-002
                    16  0.451351777036100     
                    17  0.783223877986600     
                    18 -1.168985822763000E-002
                    19 -6.942376683604000E-002
                    20  0.888865601153000     