[Molden Format]
[Atoms] AU
  N     1    7     0.0972132200   -0.2376293800    1.1274469600        
  C     2    6     0.1268252400   -0.0485622000   -1.2915243900        
  H     3    1     0.0040988200    1.3143352800    2.2662795200        
  H     4    1     0.1657498300   -1.9478586600    2.0132356500        
  H     5    1     0.0512493900    1.8042583100   -2.1606211200        
  H     6    1     0.2269902100   -1.7440440500   -2.4357691300        
[5D]
[7F]
[GTO]
  1  0
   s     6 1.00
  0.417351D+04  0.183480D-02
  0.627458D+03  0.139950D-01
  0.142902D+03  0.685870D-01
  0.402343D+02  0.232241D+00
  0.128202D+02  0.469070D+00
  0.439044D+01  0.360455D+00
   s     3 1.00
  0.116264D+02 -0.114961D+00
  0.271628D+01 -0.169118D+00
  0.772218D+00  0.114585D+01
   s     1 1.00
  0.212031D+00  0.100000D+01
   p     3 1.00
  0.116264D+02  0.675800D-01
  0.271628D+01  0.323907D+00
  0.772218D+00  0.740895D+00
   p     1 1.00
  0.212031D+00  0.100000D+01
   d     1 1.00
  0.800000D+00  0.100000D+01
  
  2  0
   s     6 1.00
  0.304752D+04  0.183470D-02
  0.457370D+03  0.140373D-01
  0.103949D+03  0.688426D-01
  0.292102D+02  0.232184D+00
  0.928666D+01  0.467941D+00
  0.316393D+01  0.362312D+00
   s     3 1.00
  0.786827D+01 -0.119332D+00
  0.188129D+01 -0.160854D+00
  0.544249D+00  0.114346D+01
   s     1 1.00
  0.168714D+00  0.100000D+01
   p     3 1.00
  0.786827D+01  0.689991D-01
  0.188129D+01  0.316424D+00
  0.544249D+00  0.744308D+00
   p     1 1.00
  0.168714D+00  0.100000D+01
   d     1 1.00
  0.800000D+00  0.100000D+01
  
  3  0
   s     3 1.00
  0.187311D+02  0.334946D-01
  0.282539D+01  0.234727D+00
  0.640122D+00  0.813757D+00
   s     1 1.00
  0.161278D+00  0.100000D+01
  
  4  0
   s     3 1.00
  0.187311D+02  0.334946D-01
  0.282539D+01  0.234727D+00
  0.640122D+00  0.813757D+00
   s     1 1.00
  0.161278D+00  0.100000D+01
  
  5  0
   s     3 1.00
  0.187311D+02  0.334946D-01
  0.282539D+01  0.234727D+00
  0.640122D+00  0.813757D+00
   s     1 1.00
  0.161278D+00  0.100000D+01
  
  6  0
   s     3 1.00
  0.187311D+02  0.334946D-01
  0.282539D+01  0.234727D+00
  0.640122D+00  0.813757D+00
   s     1 1.00
  0.161278D+00  0.100000D+01
  
[MO]
 Sym= __1_A__
 Ene=  0.000000000000000E+000
 Spin= Alpha
 Occup=    2.00000000000000     
                     1  0.995953143102502     
                     2  2.394583838438169E-002
                     3 -1.248135206073339E-002
                     4  1.051860454665682E-005
                     5  6.634911372755397E-005
                     6 -8.489931783799928E-004
                     7 -1.868243308636445E-005
                     8 -1.182089545744362E-004
                     9  1.513125345217738E-003
                    10  3.339032855930770E-004
                    11 -7.583678836818801E-006
                    12 -4.341346810815789E-005
                    13 -2.653904176250370E-005
                    14 -1.879962475727679E-006
                    15  9.641823244770723E-005
                    16 -6.758930276893655E-004
                    17  4.730480992391376E-003
                    18  6.236710897485897E-006
                    19  3.974467582377919E-005
                    20 -5.084370646801672E-004
                    21 -2.761917129196145E-005
                    22 -1.765780695769048E-004
                    23  2.258563691485515E-003
                    24 -6.966839423468205E-004
                    25  1.391297501726990E-005
                    26  9.818573688243693E-005
                    27 -4.251527419004710E-005
                    28 -5.679422813903928E-006
                    29 -1.556922361446647E-005
                    30  1.777588439371224E-003
                    31 -1.553188238643994E-005
                    32  1.777623102662336E-003
                    33 -2.205388579660067E-004
                    34 -1.248111053032590E-004
                    35 -2.205519666620759E-004
                    36 -1.248719996293218E-004
 Sym= __2_A__
 Ene=  0.000000000000000E+000
 Spin= Alpha
 Occup=    2.00000000000000     
                     1 -3.281137557649121E-004
                     2 -1.463854316726889E-004
                     3 -1.870636238067090E-004
                     4 -5.408464708564515E-006
                     5 -3.463534479023559E-005
                     6  4.430876370607661E-004
                     7 -1.088986016678840E-005
                     8 -6.941137894322796E-005
                     9  8.889096943236949E-004
                    10 -6.950148790248528E-004
                    11  1.687311186456870E-005
                    12  8.623130169879082E-005
                    13  1.089376512752755E-004
                    14  9.174436951227542E-006
                    15  0.996084531615189     
                    16  2.405894153577441E-002
                    17 -9.579136000506864E-003
                    18 -1.701536539606016E-005
                    19 -1.086063039626947E-004
                    20  1.389415785579075E-003
                    21 -1.141489001324410E-005
                    22 -7.321199127042483E-005
                    23  9.364522687293065E-004
                    24  8.806672072036268E-004
                    25 -2.630121041990202E-005
                    26 -9.002022040791506E-005
                    27 -3.867572108616572E-004
                    28 -3.601539683891533E-005
                    29 -4.103234193338396E-006
                    30  6.285590544168281E-005
                    31 -4.070252511899160E-006
                    32  6.291294555594887E-005
                    33 -4.052209020283480E-004
                    34  2.577042994186084E-003
                    35 -4.052226582192247E-004
                    36  2.577014550298956E-003
 Sym= __3_A__
 Ene=  0.000000000000000E+000
 Spin= Alpha
 Occup=    2.00000000000000     
                     1 -0.191716455640963     
                     2  0.403264885402036     
                     3  0.407752955708389     
                     4  1.005935113875912E-003
                     5  6.381491839673632E-003
                     6 -8.165938214991629E-002
                     7  3.422332185110355E-004
                     8  2.157676295608871E-003
                     9 -2.761681599515327E-002
                    10  1.182570805400830E-002
                    11 -5.849364239081857E-004
                    12 -3.009643434859423E-004
                    13 -1.691454655676003E-002
                    14 -1.633803606078438E-003
                    15 -0.110055819459707     
                    16  0.223755223777621     
                    17  6.682812245293916E-002
                    18 -1.835044599718014E-003
                    19 -1.172362602796728E-002
                    20  0.149989559503577     
                    21  1.939835462214419E-004
                    22  1.236454438183098E-003
                    23 -1.581972859954292E-002
                    24  2.423293842612534E-002
                    25 -6.412681476327337E-004
                    26 -2.798289484698735E-003
                    27 -6.488917278689086E-003
                    28 -5.837598345527775E-004
                    29  9.454654213840284E-002
                    30 -1.127359728024716E-002
                    31  9.454768512386058E-002
                    32 -1.127397323557543E-002
                    33  3.745020425856702E-002
                    34 -1.265585153393490E-003
                    35  3.745081356050394E-002
                    36 -1.265294760057862E-003
 Sym= __4_A__
 Ene=  0.000000000000000E+000
 Spin= Alpha
 Occup=    2.00000000000000     
                     1 -7.869516444786825E-002
                     2  0.166936914067419     
                     3  0.264365986404002     
                     4 -3.533521757958901E-003
                     5 -2.264098677341292E-002
                     6  0.289696004419747     
                     7 -1.540700766435865E-003
                     8 -9.884420787460864E-003
                     9  0.126482107134269     
                    10 -1.255311257985053E-002
                    11 -7.804751566880885E-005
                    12  3.059748413769452E-003
                    13 -1.743014868144873E-002
                    14 -1.737390807753607E-003
                    15  0.161648768419034     
                    16 -0.341658850929181     
                    17 -0.302260992609785     
                    18 -5.200995469582661E-004
                    19 -3.348166615309476E-003
                    20  4.284816624178218E-002
                    21 -3.592533245224283E-004
                    22 -2.297832011317665E-003
                    23  2.939926236083143E-002
                    24 -1.990976369328007E-003
                    25  4.682608781328943E-004
                    26 -1.391263729155768E-003
                    27  2.147971367103728E-002
                    28  2.101918080085873E-003
                    29  0.127393574080016     
                    30  1.119131366207857E-002
                    31  0.127390080139208     
                    32  1.119136979572122E-002
                    33 -0.134295145007647     
                    34 -2.292928992721559E-002
                    35 -0.134294971238369     
                    36 -2.292917889128928E-002
 Sym= __5_A__
 Ene=  0.000000000000000E+000
 Spin= Alpha
 Occup=    2.00000000000000     
                     1 -3.648383548801049E-007
                     2  1.108147581854834E-006
                     3  8.898280458352406E-007
                     4 -2.373431228443484E-002
                     5  0.478922025875101     
                     6  3.714814102208052E-002
                     7 -1.557116073569150E-002
                     8  0.314195535776816     
                     9  2.437161107725943E-002
                    10  2.677343549377019E-003
                    11 -1.005834179950887E-003
                    12  1.980443242685321E-002
                    13  1.569610542027286E-003
                    14 -1.618582093740603E-004
                    15 -1.985862777471131E-006
                    16  4.614592314935429E-006
                    17  6.898896216993337E-006
                    18 -8.374600048611899E-003
                    19  0.169012927159250     
                    20  1.310154691445828E-002
                    21 -1.021453935590117E-003
                    22  2.060818939943157E-002
                    23  1.596506794931149E-003
                    24  1.689351983031314E-003
                    25 -6.355544676570036E-004
                    26  1.250220603724457E-002
                    27  9.905739953168836E-004
                    28 -1.053215513630900E-004
                    29  0.208055282932483     
                    30  3.654973000996290E-002
                    31 -0.208055362860332     
                    32 -3.655069144853049E-002
                    33  5.689159840605047E-002
                    34  2.272965266096515E-002
                    35 -5.688584968936683E-002
                    36 -2.272851258897439E-002
 Sym= __6_A__
 Ene=  0.000000000000000E+000
 Spin= Alpha
 Occup=    2.00000000000000     
                     1  1.061791328322140E-002
                     2 -2.598227280734060E-002
                     3 -9.119297033776293E-003
                     4 -4.806956501937997E-003
                     5 -3.082754777576104E-002
                     6  0.394313152459200     
                     7 -2.595722772652138E-003
                     8 -1.666791077181500E-002
                     9  0.213185285447797     
                    10 -1.273132823435140E-002
                    11  2.631619070866602E-005
                    12  2.690547862074381E-003
                    13 -1.235402573023580E-002
                    14 -1.239744446311262E-003
                    15 -4.033241706934187E-002
                    16  7.670834987670463E-002
                    17  0.213716050288162     
                    18  5.184468331891279E-003
                    19  3.309141256399457E-002
                    20 -0.423421478090525     
                    21  1.182484799021060E-003
                    22  7.557175098519861E-003
                    23 -9.669507879461105E-002
                    24 -2.922845396507083E-002
                    25  1.997765082738433E-004
                    26  5.620932337604497E-003
                    27 -2.119268307081928E-002
                    28 -2.141629724797408E-003
                    29  0.104484077699552     
                    30  3.174867619193113E-002
                    31  0.104487944961097     
                    32  3.174999389965376E-002
                    33  0.153229980870476     
                    34  6.840449738908097E-002
                    35  0.153229554868811     
                    36  6.840484934285312E-002
 Sym= __7_A__
 Ene=  0.000000000000000E+000
 Spin= Alpha
 Occup=    1.66575124806127     
                     1  4.178313397211388E-007
                     2 -9.359767651928762E-007
                     3 -3.502896472180431E-006
                     4 -8.216737999130362E-003
                     5  0.165524046850567     
                     6  1.283813556049795E-002
                     7 -8.394298687326076E-003
                     8  0.169213529446564     
                     9  1.312503742883418E-002
                    10  3.755689095474893E-003
                    11 -1.410803774708596E-003
                    12  2.778565250382586E-002
                    13  2.201991887471740E-003
                    14 -2.317339014118565E-004
                    15 -1.945534633028237E-007
                    16  3.413728262426201E-007
                    17  2.301185672573751E-006
                    18  2.264310538030460E-002
                    19 -0.457289485303818     
                    20 -3.546294211169868E-002
                    21  1.380986594706583E-002
                    22 -0.278858106956951     
                    23 -2.162360623549419E-002
                    24  4.985215387448139E-003
                    25 -1.874609873196211E-003
                    26  3.689412971278326E-002
                    27  2.923026567247546E-003
                    28 -3.095142623531184E-004
                    29  9.823571968846490E-002
                    30  4.550509894183693E-002
                    31 -9.823684911247192E-002
                    32 -4.550608148893991E-002
                    33 -0.241766274853733     
                    34 -9.679653059887962E-002
                    35  0.241768645181809     
                    36  9.679859385352241E-002
 Sym= __8_A__
 Ene=  0.000000000000000E+000
 Spin= Alpha
 Occup=    1.63269252535075     
                     1  5.959877414505118E-006
                     2 -1.568971351459504E-005
                     3 -1.996503645565245E-005
                     4  0.575756756461172     
                     5  2.782408791407383E-002
                     6  9.199061948824064E-003
                     7  0.451953707307122     
                     8  2.184216662906122E-002
                     9  7.223261507958277E-003
                    10 -5.117318376340544E-004
                    11 -1.842325014252038E-002
                    12 -8.660566652860661E-004
                    13  1.580786477535782E-004
                    14  1.451048425728175E-003
                    15 -1.873135960958449E-006
                    16  4.407259205374701E-006
                    17 -1.473418317499650E-006
                    18  0.201100907844602     
                    19  9.699185314941003E-003
                    20  3.232182384672870E-003
                    21  6.240653655399531E-002
                    22  3.004882468423834E-003
                    23  1.001816647959380E-003
                    24  9.503644707061542E-004
                    25  3.421335859153272E-002
                    26  1.611407271784598E-003
                    27 -2.894935004023708E-004
                    28 -2.695010405835798E-003
                    29  7.724741512626508E-006
                    30  2.745880849251050E-006
                    31 -4.914989051296281E-007
                    32 -6.067172153599867E-007
                    33 -1.000653011340548E-005
                    34 -5.233925341101338E-006
                    35  4.366490931993606E-006
                    36  2.812007842432045E-006
 Sym= __9_A__
 Ene=  0.000000000000000E+000
 Spin= Alpha
 Occup=   0.701556226587982     
                     1 -2.635659082252218E-006
                     2  6.447004157471777E-006
                     3  1.832846638885056E-005
                     4 -0.264958461370030     
                     5 -1.279912401477334E-002
                     6 -4.235238547177629E-003
                     7 -0.412325646613089     
                     8 -1.991756095470289E-002
                     9 -6.595307644142346E-003
                    10 -5.820062380014818E-004
                    11 -2.099423941477273E-002
                    12 -9.867293983447135E-004
                    13  1.770265208568990E-004
                    14  1.653612157057902E-003
                    15 -1.251166176462674E-006
                    16  6.255871125987612E-007
                    17  1.298179582577053E-005
                    18  0.593798748216988     
                    19  2.867240984345392E-002
                    20  9.499501149874060E-003
                    21  0.606347990171616     
                    22  2.927614453850987E-002
                    23  9.704075994651812E-003
                    24 -5.863253351052706E-004
                    25 -2.113084127211646E-002
                    26 -9.948598226802638E-004
                    27  1.790827278755374E-004
                    28  1.664231411774609E-003
                    29 -3.846004575074143E-006
                    30 -3.057376901254691E-006
                    31 -9.794354934426520E-006
                    32 -1.056771218310537E-005
                    33 -1.583731955192989E-006
                    34  7.834313421758148E-007
                    35 -4.504415717980651E-006
                    36 -8.197687823710272E-006
